# vtk DataFile Version 5.1
vtk output
ASCII
DATASET POLYDATA
POINTS 128 double
-14.907629013 50.414844513 49.802051544 -15.093821526 50.579536438 50.005329132 -15.302456856 50.612567902 50.233219147 
-12.569293022 48.945102692 46.039886475 -12.707118034 48.93712616 46.453952789 -12.828840256 48.921611786 46.847995758 
-12.947425842 48.91570282 47.200035095 -11.95675087 48.911052704 44.389839172 -12.084534645 48.905513763 44.79510498 
-18.68938446 43.895355225 45.390628815 -18.687334061 43.881824493 45.020938873 -22.210195541 51.481491089 36.845359802 
-21.874128342 51.671676636 36.794315338 -22.613059998 50.532932281 36.831371307 -22.603322983 50.897377014 36.864902496 
-22.166812897 49.404823303 36.697158813 -22.360586166 49.780353546 36.731784821 -14.719228745 50.151100159 49.611469269 
-15.552007675 50.528022766 50.495292664 -15.842551231 50.367153168 50.771057129 -14.341651917 49.629894257 49.251499176 
-14.526973724 49.865032196 49.433986664 -18.389602661 49.288272858 51.506877899 -18.718147278 49.02387619 51.530601501 
-19.450439453 48.199085236 51.37669754 -19.585390091 47.881767273 51.233531952 -19.676513672 47.549274445 51.039096832 
-19.728321075 47.239395142 50.803863525 -19.748960495 46.965301514 50.542339325 -19.740127563 46.707767487 50.259738922 
-19.697753906 46.441913605 49.959526062 -19.622070312 46.165077209 49.661209106 -13.08449173 48.938282013 47.508274078 
-13.263671875 49.002159119 47.800144196 -12.147175789 49.574131012 41.825164795 -11.963331223 49.396438599 42.184207916 
-11.848273277 49.251029968 42.55160141 -11.800395966 49.145191193 42.90247345 -18.73743248 44.002212524 46.179897308 
-18.703651428 43.931232452 45.774410248 -13.54258728 50.444549561 39.462200165 -13.390062332 50.378032684 39.793960571 
-15.208642006 51.293804169 37.954307556 -14.892871857 51.126438141 38.091274261 -14.566917419 50.945400238 38.269794464 
-19.643943787 44.950008392 39.424003601 -19.872718811 45.16885376 39.359848022 -18.934738159 44.258808136 40.055667877 
-19.056686401 44.391448975 39.726127625 -19.214286804 44.547626495 39.5286026 -19.292388916 51.922595978 36.561805725 
-18.873018265 51.888061523 36.56508255 -20.168773651 51.947853088 36.593955994 -19.725156784 51.945289612 36.572834015 
-21.066688538 51.879302979 36.673854828 -20.619550705 51.926631927 36.626781464 -22.520402908 50.155097961 36.782424927 
-21.642709732 48.214969635 36.881355286 -21.788263321 48.610774994 36.757862091 -21.968065262 49.014549255 36.699848175 
-21.082191467 46.621814728 38.006515503 -21.219873428 46.880565643 37.789714813 -18.698150635 43.9376297 41.86932373 
-18.722621918 43.981517792 41.411315918 -11.797239304 49.065994263 43.245326996 -11.820484161 48.998661041 43.606124878 
-18.703380585 43.897323608 43.428295135 -18.699281693 43.900745392 43.066413879 -18.691608429 43.880794525 44.670753479 
-18.697425842 43.884632111 44.352466583 -20.500926971 45.836357117 38.771377563 -20.713527679 46.095024109 38.500530243 
-18.691093445 43.914859772 42.298141479 -17.396406174 49.783321381 51.383625031 -17.753852844 49.666168213 51.422660828 
-14.158092499 49.46446228 49.025371552 -12.411592484 48.937503815 45.622085571 -18.702066422 43.889274597 44.05896759 
-18.704309464 43.893543243 43.760101318 -12.62112999 49.941162109 41.185264587 -12.376501083 49.762302399 41.495922089 
-21.529689789 47.840515137 37.071552277 -21.489513397 51.799015045 36.732635498 -19.170444489 45.054660797 48.507099152 
-19.096998215 44.848018646 48.172145844 -18.071910858 49.506141663 51.464504242 -13.964551926 50.637733459 38.817974091 
-13.727848053 50.52765274 39.140827179 -11.870209694 48.943622589 43.991252899 -13.957536697 49.339374542 48.741161346 
-19.414402008 44.735736847 39.452331543 -18.098514557 51.826984406 36.644954681 -17.752912521 51.808349609 36.729522705 
-12.24322319 48.919464111 45.206310272 -19.519109726 45.88470459 49.381584167 -16.17795372 50.181308746 51.020957947 
-16.221794128 51.6170578 37.413604736 -15.85274601 51.532726288 37.6304245 -18.798151016 44.12285614 46.603336334 
-19.267189026 48.480709076 51.469726562 -16.619918823 51.688903809 37.193553925 -13.23888588 50.309570312 40.150676727 
-13.064117432 50.219783783 40.516986847 -17.023387909 51.746829987 37.000572205 -20.912042618 46.361278534 38.239944458 
-21.332689285 47.163143158 37.560863495 -19.274158478 45.311122894 48.819129944 -18.69377327 43.905132294 42.691810608 
-20.289907455 45.598308563 39.021640778 -20.084686279 45.380954742 39.223930359 -22.466251373 51.22095108 36.871250153 
-19.022693634 48.748218536 51.519756317 -12.856185913 50.096843719 40.864757538 -13.487782478 49.103527069 48.103481293 
-13.729868889 49.221641541 48.423000336 -19.038593292 44.670452118 47.812335968 -16.566026688 50.015487671 51.209712982 
-16.988306046 49.888225555 51.324325562 -18.882469177 44.293586731 47.024681091 -21.432086945 47.486579895 37.311210632 
-17.403697968 51.785785675 36.84651947 -14.249702454 50.777671814 38.515758514 -19.397781372 45.597881317 49.108306885 
-18.839977264 44.144538879 40.477622986 -18.769435883 44.050807953 40.941181183 -18.471347809 51.853240967 36.590782166 
-18.969242096 44.486766815 47.428958893 -15.520132065 51.428688049 37.811973572 
LINES 129 256
OFFSETS vtktypeint64
0 2 4 6 8 10 12 14 16 
18 20 22 24 26 28 30 32 34 
36 38 40 42 44 46 48 50 52 
54 56 58 60 62 64 66 68 70 
72 74 76 78 80 82 84 86 88 
90 92 94 96 98 100 102 104 106 
108 110 112 114 116 118 120 122 124 
126 128 130 132 134 136 138 140 142 
144 146 148 150 152 154 156 158 160 
162 164 166 168 170 172 174 176 178 
180 182 184 186 188 190 192 194 196 
198 200 202 204 206 208 210 212 214 
216 218 220 222 224 226 228 230 232 
234 236 238 240 242 244 246 248 250 
252 254 256 
CONNECTIVITY vtktypeint64
0 1 1 2 3 4 5 6 7 
8 9 10 11 12 13 14 15 16 
17 0 18 19 20 21 22 23 24 
25 26 27 28 29 29 30 30 31 
32 33 34 35 36 37 38 39 40 
41 42 43 43 44 45 46 47 48 
48 49 50 51 52 53 53 50 54 
55 56 13 57 58 58 59 60 61 
62 63 64 65 66 67 68 69 70 
71 72 62 73 74 75 20 76 3 
77 78 4 5 79 80 81 57 12 
82 83 84 85 22 86 87 88 7 
89 75 6 32 49 90 91 92 93 
76 31 94 8 93 19 95 25 26 
96 97 90 45 98 38 74 85 99 
24 27 28 35 36 100 96 101 102 
41 101 103 100 16 56 59 15 104 
60 61 105 37 64 69 77 10 68 
106 83 80 34 67 107 107 72 78 
66 108 70 109 108 14 110 111 99 
112 79 65 88 113 114 114 89 84 
115 116 117 118 98 46 109 105 119 
117 73 23 111 92 120 110 11 121 
86 94 122 122 106 71 104 123 47 
124 123 21 17 87 40 120 103 125 
91 119 81 115 126 127 42 82 54 
51 125 63 124 97 127 126 118 102 
112 2 18 39 9 55 52 33 113 
95 116 44 121 
CELL_DATA 128
SCALARS Edge%20Types float
LOOKUP_TABLE default
0 0 0 0 0 0 0 0 0 
0 0 0 0 0 0 0 0 0 
0 0 0 0 0 0 0 0 0 
0 0 0 0 0 0 0 0 0 
0 0 0 0 0 0 0 0 0 
0 0 0 0 0 0 0 0 0 
0 0 0 0 0 0 0 0 0 
0 0 0 0 0 0 0 0 0 
0 0 0 0 0 0 0 0 0 
0 0 0 0 0 0 0 0 0 
0 0 0 0 0 0 0 0 0 
0 0 0 0 0 0 0 0 0 
0 0 0 0 0 0 0 0 0 
0 0 0 0 0 0 0 0 0 
0 0 
FIELD FieldData 2
Ids 1 128 vtkIdType
60 60 1702 1703 1846 1854 2116 2121 2124 
4763 13576 13593 13601 13672 13725 13726 13727 13729 
14296 15027 15029 15094 15644 15647 15648 15676 15682 
15683 16456 16458 16459 16463 16484 16502 16503 16539 
24072 24388 24396 24397 24427 25027 26361 26458 26555 
26586 29341 34499 36479 37374 38018 40024 40407 42178 
42555 47675 47918 48051 50262 55169 56742 69443 69489 
70221 70230 75851 90596 90657 90830 92974 93955 93960 
93962 95249 95289 95305 95378 95379 108498 108515 109521 
111546 111771 111842 111843 111844 112132 112134 115068 119069 
123876 124396 126021 127263 128022 130051 130257 130464 130627 
132700 133203 138380 141535 143782 145410 152672 157140 157146 
158110 160803 161417 161688 161690 170377 181260 181679 185685 
189446 194489 196109 203561 207006 213850 218241 218320 220141 
225662 229243 
GroupIds 1 128 float
0 0 0 0 0 0 0 0 0 
0 0 0 0 0 0 0 0 0 
0 0 0 0 0 0 0 0 0 
0 0 0 0 0 0 0 0 0 
0 0 0 0 0 0 0 0 0 
0 0 0 0 0 0 0 0 0 
0 0 0 0 0 0 0 0 0 
0 0 0 0 0 0 0 0 0 
0 0 0 0 0 0 0 0 0 
0 0 0 0 0 0 0 0 0 
0 0 0 0 0 0 0 0 0 
0 0 0 0 0 0 0 0 0 
0 0 0 0 0 0 0 0 0 
0 0 0 0 0 0 0 0 0 
0 0 
POINT_DATA 128
SCALARS Ids vtkIdType
LOOKUP_TABLE default
1784 1785 1783 1992 32560 9552 32561 2176 33135 
21187 41837 11020 49568 64786 2559 11043 34314 9027 
1786 31994 1797 9046 32012 1800 1812 63914 1827 
32091 75969 32092 32093 9145 91675 9530 10044 2175 
42715 40882 2037 76928 33646 77317 10472 2356 91111 
2371 51122 33672 2382 10506 34294 51187 11018 34298 
11019 2556 77905 34322 11052 77916 11071 77954 40260 
2191 83668 88623 40897 42730 40898 83674 83694 10492 
41836 51887 32011 51894 33134 42731 85020 88498 84991 
52246 2558 1867 89545 50954 2354 51118 40883 9529 
2372 2555 91758 10054 92912 9028 33640 2348 9718 
75883 2349 77315 2351 11017 2365 34340 9189 85019 
85113 2373 11023 32034 10466 1987 1986 76566 1792 
32008 32718 34338 51186 2355 93901 10508 21563 77881 
2038 77319 
