# vtk DataFile Version 5.1
vtk output
ASCII
DATASET POLYDATA
POINTS 73 double
74.990531921 51.353118896 53.006736755 74.899269104 51.462825775 53.396270752 75.193626404 51.094287872 51.006187439 
75.256324768 51.175884247 51.354263306 70.807785034 56.78477478 54.745616913 70.528915405 56.832874298 54.428951263 
71.05582428 56.688514709 55.042457581 71.378105164 56.364181519 55.54202652 71.240959167 56.547016144 55.30670166 
70.266029358 56.840930939 54.107715607 70.052047729 56.830162048 53.781864166 69.893928528 56.8203125 53.432563782 
69.779632568 56.814918518 53.042446136 73.368736267 54.578193665 56.224967957 73.181900024 54.719581604 56.297927856 
73.46333313 54.408252716 56.220760345 72.93296814 54.880081177 56.369670868 74.558708191 52.124530792 54.640083313 
74.443145752 52.354457855 54.929302216 69.69002533 56.797100067 52.621585846 69.601295471 56.73790741 52.201469421 
74.828437805 51.609241486 53.734172821 74.7602005 51.76965332 54.035152435 69.115814209 55.89427948 50.484848022 
69.162765503 55.781692505 50.175453186 69.734153748 55.590957642 49.205562592 69.922409058 55.429103851 48.919750214 
70.047775269 55.157375336 48.674137115 70.123344421 54.804420471 48.477272034 70.189826965 54.425113678 48.331924438 
70.299919128 54.074272156 48.230625153 70.495582581 53.783939362 48.163028717 70.768791199 53.533481598 48.120792389 
71.059455872 53.266143799 48.097496033 71.330596924 52.963005066 48.089061737 72.215698242 52.123191833 48.146980286 
72.47454071 51.830356598 48.201568604 71.916679382 52.395706177 48.112316132 74.259140015 51.281074524 49.06275177 
74.467735291 51.168056488 49.343292236 72.719451904 51.570793152 48.278438568 72.99370575 51.407772064 48.377803802 
73.30696106 51.343345642 48.500747681 74.671195984 51.936462402 54.333610535 75.253860474 51.227291107 51.729125977 
75.194831848 51.258289337 52.142696381 74.231941223 52.900844574 55.411598206 74.094490051 53.151866913 55.649829865 
69.148269653 56.052238464 50.792289734 74.615379333 51.017524719 49.669960022 74.751449585 50.912239075 50.009544373 
73.513336182 53.974071503 56.327713013 73.491279602 54.198497772 56.278255463 71.609474182 52.66475296 48.093864441 
69.492698669 56.617607117 51.807079315 69.364181519 56.44303894 51.444961548 69.239265442 56.243366241 51.109550476 
75.097442627 51.290584564 52.579364777 71.531532288 56.145576477 55.758049011 72.664634705 55.097923279 56.362205505 
72.378349304 55.36341095 56.266971588 73.585838318 53.762145996 56.292629242 73.72958374 53.566192627 56.141189575 
73.916664124 53.369510651 55.905731201 69.300231934 55.713165283 49.852909088 69.508369446 55.666236877 49.522468567 
75.068496704 50.99162674 50.669418335 74.907569885 50.910388947 50.340187073 71.762138367 55.901424408 55.95324707 
74.33870697 52.624076843 55.181751251 73.642868042 51.332824707 48.651557922 73.973953247 51.326953888 48.835918427 
72.064567566 55.638946533 56.12323761 
LINES 74 146
OFFSETS vtktypeint64
0 2 4 6 8 10 12 14 16 
18 20 22 24 26 28 30 32 34 
36 38 40 42 44 46 48 50 52 
54 56 58 60 62 64 66 68 70 
72 74 76 78 80 82 84 86 88 
90 92 94 96 98 100 102 104 106 
108 110 112 114 116 118 120 122 124 
126 128 130 132 134 136 138 140 142 
144 146 
CONNECTIVITY vtktypeint64
0 1 2 3 4 5 6 4 7 
8 5 9 9 10 11 12 13 14 
15 13 14 16 17 18 19 20 21 
22 23 24 25 26 26 27 28 29 
29 30 31 32 32 33 33 34 35 
36 37 35 38 39 40 41 41 42 
43 17 44 45 3 44 8 6 46 
47 48 23 49 50 51 52 53 37 
20 54 54 55 55 56 57 0 58 
7 10 11 59 60 16 59 61 51 
62 61 63 62 22 43 1 21 56 
48 24 64 65 25 27 28 30 31 
36 40 66 2 67 66 50 67 68 
58 69 46 64 65 70 71 72 68 
47 63 12 19 52 15 60 72 42 
70 45 57 71 38 39 49 18 69 
34 53 
CELL_DATA 73
SCALARS Edge%20Types float
LOOKUP_TABLE default
0 0 0 0 0 0 0 0 0 
0 0 0 0 0 0 0 0 0 
0 0 0 0 0 0 0 0 0 
0 0 0 0 0 0 0 0 0 
0 0 0 0 0 0 0 0 0 
0 0 0 0 0 0 0 0 0 
0 0 0 0 0 0 0 0 0 
0 0 0 0 0 0 0 0 0 
0 
FIELD FieldData 2
Ids 1 73 vtkIdType
61 1551 13037 13038 13039 13046 13048 13049 13062 
13062 13063 13100 13523 13552 14150 14153 14154 14159 
14160 14168 14169 14170 14183 14184 14197 14200 14202 
26257 26354 37245 39913 39924 40131 47661 58266 61402 
66614 69428 69429 69439 75354 89731 89735 89737 89755 
89801 89803 90537 90539 91550 91554 91555 91556 91561 
91594 91619 118539 118541 129951 129954 130172 130186 140133 
141611 142080 148238 160636 169087 180952 181151 181152 225646 
230016 
GroupIds 1 73 float
0 0 0 0 0 0 0 0 0 
0 0 0 0 0 0 0 0 0 
0 0 0 0 0 0 0 0 0 
0 0 0 0 0 0 0 0 0 
0 0 0 0 0 0 0 0 0 
0 0 0 0 0 0 0 0 0 
0 0 0 0 0 0 0 0 0 
0 0 0 0 0 0 0 0 0 
0 
POINT_DATA 73
SCALARS Ids vtkIdType
LOOKUP_TABLE default
9015 1780 9017 49451 75465 1632 50927 75466 1633 
8612 31620 75468 92435 1636 8621 31630 1635 31656 
1643 1770 8984 9007 75836 50999 1966 32449 1967 
76284 1968 9468 76288 1970 32461 1972 32463 1976 
32470 32469 32487 1981 1977 9495 32489 31655 1788 
9016 50929 31645 9460 32488 1980 31632 93325 1973 
8985 63872 76281 1787 8610 75471 75470 1637 75492 
8637 51000 76283 76318 87131 1634 31646 90051 76320 
8617 
