# vtk DataFile Version 5.1
vtk output
ASCII
DATASET POLYDATA
POINTS 105 double
66.993629456 30.15071106 90.498016357 67.307769775 29.983072281 90.300949097 64.004302979 29.659433365 92.112998962 
64.315795898 29.813014984 92.092514038 58.728412628 22.879362106 91.658630371 58.705821991 23.226860046 91.604423523 
58.813472748 22.570308685 91.709388733 58.921607971 21.539751053 91.566467285 58.940532684 21.909189224 91.685028076 
58.895896912 20.639635086 90.922065735 58.860366821 20.879644394 91.155967712 68.284255981 29.093708038 89.280540466 
68.479240417 28.854959488 88.956970215 70.352310181 25.427997589 85.97479248 70.348472595 25.070949554 85.793876648 
70.056930542 24.047712326 85.618667603 69.904304504 23.752859116 85.525054932 68.384460449 21.985387802 85.081726074 
68.078651428 21.755886078 84.995132446 66.724128723 21.021045685 84.704795837 66.433753967 20.85008049 84.803062439 
69.913322449 26.688476562 87.030014038 70.058364868 26.407953262 86.811439514 65.803634644 30.111131668 91.598701477 
66.097808838 30.176391602 91.345314026 65.080184937 30.0033741 91.95589447 65.46484375 30.054815292 91.806976318 
64.680686951 29.929893494 92.045417786 62.730323792 28.891592026 91.983970642 63.05412674 29.112789154 92.040122986 
61.499320984 28.007379532 91.663864136 61.828025818 28.227619171 91.761482239 62.137355804 28.435348511 91.84954071 
60.324832916 26.42873764 91.492645264 60.504364014 26.788869858 91.48336792 59.207450867 24.727949142 91.482414246 
59.383453369 25.005353928 91.480407715 58.883823395 24.013261795 91.525016785 59.03768158 24.393568039 91.498062134 
59.67345047 20.031366348 89.511863708 59.546897888 20.093196869 89.833511353 59.806293488 19.983232498 89.160057068 
59.383983612 20.180450439 90.13318634 59.186412811 20.301174164 90.418769836 59.007160187 20.453224182 90.681404114 
69.471679688 27.58480835 87.272254944 69.623016357 27.268289566 87.234428406 70.194313049 26.106525421 86.531455994 
70.298789978 25.778558731 86.234817505 70.292037964 24.721069336 85.702972412 70.191146851 24.377487183 85.66608429 
68.678588867 22.234457016 85.185394287 65.883247375 20.510381699 85.210884094 65.591583252 20.369762421 85.410758972 
65.285949707 20.26558876 85.558822632 64.949134827 20.194290161 85.658180237 64.575523376 20.146144867 85.727684021 
64.193077087 20.116567612 85.779052734 63.82339859 20.10405159 85.816390991 63.448875427 20.105100632 85.844337463 
62.242023468 20.146398544 85.932777405 61.862297058 20.154056549 86.020561218 60.798274994 19.913827896 87.758361816 
60.524501801 19.898832321 88.126495361 60.235012054 19.91271019 88.459587097 61.537578583 20.141876221 86.195487976 
61.305660248 20.100452423 86.487251282 69.576087952 23.248039246 85.355682373 69.39755249 23.001367569 85.349685669 
60.91884613 27.465150833 91.517631531 61.185649872 27.754402161 91.576904297 59.988079071 19.94332695 88.800140381 
69.195396423 22.750917435 85.344299316 66.162101746 20.676200867 84.989936829 68.655838013 28.651390076 88.603256226 
67.840538025 29.563837051 89.877059937 68.070159912 29.338787079 89.588264465 68.954902649 22.494098663 85.287162781 
69.743515015 23.493680954 85.417381287 69.318557739 27.87600708 87.35092926 59.563793182 25.244356155 91.488777161 
59.751651764 25.482955933 91.500404358 63.709293365 29.488552094 92.111114502 60.69713974 27.14030838 91.488502502 
58.902153015 22.257457733 91.727966309 67.590393066 29.776037216 90.11505127 67.751647949 21.546783447 84.907104492 
69.16065979 28.115009308 87.538040161 66.376327515 30.229875565 91.05758667 63.390350342 29.308794022 92.085517883 
62.429748535 28.657211304 91.921783447 60.141334534 26.077623367 91.503990173 58.764194489 23.614273071 91.560020447 
58.880168915 21.185218811 91.380470276 69.769462585 26.967212677 87.167457581 67.402816772 21.358819962 84.80381012 
67.051216125 21.187685013 84.716262817 63.050666809 20.115325928 85.867706299 62.642261505 20.130756378 85.892082214 
68.824501038 28.478759766 88.221618652 68.994041443 28.308961868 87.84552002 66.673629761 30.233600616 90.758171082 
59.947212219 25.756931305 91.507270813 61.151485443 20.033845901 86.886184692 61.004741669 19.963054657 87.333778381 

LINES 106 210
OFFSETS vtktypeint64
0 2 4 6 8 10 12 14 16 
18 20 22 24 26 28 30 32 34 
36 38 40 42 44 46 48 50 52 
54 56 58 60 62 64 66 68 70 
72 74 76 78 80 82 84 86 88 
90 92 94 96 98 100 102 104 106 
108 110 112 114 116 118 120 122 124 
126 128 130 132 134 136 138 140 142 
144 146 148 150 152 154 156 158 160 
162 164 166 168 170 172 174 176 178 
180 182 184 186 188 190 192 194 196 
198 200 202 204 206 208 210 
CONNECTIVITY vtktypeint64
0 1 2 3 4 5 6 4 7 
8 9 10 11 12 13 14 15 16 
17 18 19 20 21 22 23 24 25 
26 3 27 28 29 30 31 31 32 
33 34 35 36 37 38 39 40 41 
39 42 43 43 44 45 46 22 47 
47 48 49 50 51 17 52 53 54 
55 56 57 58 59 60 61 62 63 
63 64 65 66 67 68 69 70 64 
71 68 72 20 73 12 74 75 76 
72 77 16 78 79 45 80 81 82 
2 34 83 84 6 44 9 1 85 
18 86 87 79 24 88 27 25 29 
89 89 82 32 90 91 33 36 80 
38 35 92 37 5 92 10 93 40 
42 94 21 14 49 78 67 95 96 
73 52 53 54 55 56 57 58 59 
97 97 98 98 60 99 100 8 84 
101 0 88 101 48 13 83 69 50 
15 85 75 26 23 102 91 81 102 
74 99 96 19 93 7 77 51 71 
41 100 87 66 103 103 104 90 28 
61 65 46 94 70 30 104 62 86 
95 76 11 
CELL_DATA 105
SCALARS Edge%20Types float
LOOKUP_TABLE default
0 0 0 0 0 0 0 0 0 
0 0 0 0 0 0 0 0 0 
0 0 0 0 0 0 0 0 0 
0 0 0 0 0 0 0 0 0 
0 0 0 0 0 0 0 0 0 
0 0 0 0 0 0 0 0 0 
0 0 0 0 0 0 0 0 0 
0 0 0 0 0 0 0 0 0 
0 0 0 0 0 0 0 0 0 
0 0 0 0 0 0 0 0 0 
0 0 0 0 0 0 0 0 0 
0 0 0 0 0 0 
FIELD FieldData 2
Ids 1 105 vtkIdType
6 157 179 185 186 189 213 276 280 
284 288 3680 6544 6545 6558 6581 6585 6586 
6630 6659 6699 6879 6880 6883 6884 7084 7101 
7102 7136 7152 7189 7190 7194 7195 7202 25672 
25673 25674 29895 30706 36939 36950 36952 37703 38434 
38501 42942 59880 65560 66830 66847 66878 66902 66933 
67074 73442 78821 78822 78840 78842 78876 78931 78974 
79017 79019 79053 79109 79315 79661 79741 79767 79787 
79814 79819 79820 79826 79835 79836 79837 110411 114829 
119708 124815 125071 128392 132549 134967 136353 153007 155472 
158616 158742 168182 173133 176138 178706 185316 185317 194497 
199190 200180 207192 212700 227618 233029 
GroupIds 1 105 float
0 0 0 0 0 0 0 0 0 
0 0 0 0 0 0 0 0 0 
0 0 0 0 0 0 0 0 0 
0 0 0 0 0 0 0 0 0 
0 0 0 0 0 0 0 0 0 
0 0 0 0 0 0 0 0 0 
0 0 0 0 0 0 0 0 0 
0 0 0 0 0 0 0 0 0 
0 0 0 0 0 0 0 0 0 
0 0 0 0 0 0 0 0 0 
0 0 0 0 0 0 0 0 0 
0 0 0 0 0 0 
POINT_DATA 105
SCALARS Ids vtkIdType
LOOKUP_TABLE default
4462 61804 61726 26946 60 27031 61762 49145 4389 
61778 70 106 4485 4729 205 209 51992 4756 
61913 223 49172 4720 199 26938 70841 10 4222 
4224 26957 17 26 25 70862 70888 26985 46 
70911 70932 70931 4539 71071 135 134 4544 75 
4705 195 4719 88793 71265 51858 71272 231 71294 
4786 71295 71299 4790 71300 27401 27403 27404 250 
4834 136 235 27444 216 49169 50407 26975 4541 
215 4781 27091 27084 101 50464 214 191 4332 
94141 4247 26974 64 102 71280 16153 4219 70850 
4270 4314 55 4404 71227 4759 27374 4791 71304 
107 4692 9 27001 4835 27445 
