# vtk DataFile Version 5.1
vtk output
ASCII
DATASET POLYDATA
POINTS 106 double
-28.983207703 19.921791077 60.969738007 -29.08382988 19.760665894 60.690578461 -29.237167358 19.704050064 60.41734314 
-27.841028214 31.053281784 62.90007782 -27.73872757 30.834581375 63.222015381 -27.756793976 31.650756836 61.560276031 
-27.85789299 31.545583725 61.884849548 -27.566692352 31.73100853 61.282859802 -29.23201561 20.410303116 55.381938934 
-29.091161728 20.531042099 54.987548828 -28.616205215 21.911260605 62.300498962 -28.797170639 21.55827713 62.102340698 
-26.173158646 30.816457748 57.29334259 -26.197816849 30.937875748 57.62493515 -27.329835892 29.484514236 64.004135132 
-27.444589615 29.142805099 63.891040802 -27.559053421 28.753137589 63.745162964 -27.615535736 28.333135605 63.615543365 
-27.602262497 27.901832581 63.516376495 -27.542057037 27.478775024 63.439834595 -27.464414597 27.084791183 63.377285004 
-27.388237 26.719081879 63.322803497 -27.319538116 26.350170135 63.270248413 -27.261756897 25.950260162 63.215976715 
-27.227445602 25.524518967 63.160728455 -27.892930984 23.595542908 62.863895416 -28.042039871 23.239778519 62.793697357 
-28.270605087 22.566661835 62.613037109 -28.423341751 22.248762131 62.477279663 -28.910396576 21.20982933 61.907184601 
-27.895055771 31.413757324 62.236156464 -27.890403748 31.248983383 62.574436188 -27.327285767 30.060995102 63.946269989 
-27.282035828 29.78225708 64.029312134 -27.59569931 30.595365524 63.521209717 -27.444990158 30.334741592 63.769622803 
-26.813663483 31.710464478 60.323329926 -27.034248352 31.764566422 60.682735443 -26.450593948 31.459854126 59.283695221 
-26.540735245 31.548511505 59.622074127 -26.318544388 31.275676727 58.635860443 -26.377336502 31.368879318 58.953716278 
-29.337593079 20.292211533 55.768890381 -29.060613632 19.324712753 58.046199799 -29.050537109 19.384447098 57.759204865 
-29.105976105 19.501901627 57.465766907 -29.206373215 19.665378571 57.153793335 -29.310894012 19.8456707 56.828598022 
-29.378646851 20.015140533 56.493228912 -29.388746262 20.163391113 56.140769958 -29.137260437 19.321773529 58.345687866 
-26.155216217 29.189220428 53.417350769 -26.068887711 29.409347534 53.816837311 -26.042787552 29.614999771 54.263931274 
-26.052476883 29.812042236 54.739593506 -29.015590668 23.652601242 51.737709045 -28.90483284 24.071050644 51.5507164 
-29.24105835 22.317321777 52.706062317 -29.284240723 22.623151779 52.480064392 -29.042535782 21.807065964 53.082286835 
-29.152492523 22.048368454 52.900794983 -28.788547516 21.0570755 53.855266571 -28.827783585 21.308206558 53.539581299 
-28.945363998 20.668783188 54.596218109 -28.832220078 20.840248108 54.215221405 -28.286384583 25.694391251 51.198280334 
-28.134939194 26.044355392 51.236587524 -27.778621674 27.369729996 51.934616089 -27.580871582 27.626562119 52.061325073 
-27.338096619 27.88782692 52.193088531 -27.067438126 28.159837723 52.353252411 -26.075162888 30.005714417 55.226066589 
-26.098340988 30.19726944 55.709892273 -26.136558533 30.547636032 56.594924927 -26.153900146 30.690563202 56.96175766 
-28.808172226 24.515916824 51.417526245 -26.791620255 28.432722092 52.550773621 -26.532499313 28.698215485 52.789592743 
-26.312931061 28.951681137 53.075725555 -28.055805206 26.402294159 51.375366211 -28.004858017 26.760202408 51.578914642 
-27.304649353 31.773548126 61.006465912 -28.943323135 20.191068649 61.2460289 -29.605054855 19.676767349 59.598957062 
-29.556520462 19.590032578 59.304122925 -29.407949448 19.705080032 60.147045135 -28.925714493 21.564359665 53.285049438 
-28.488500595 25.335468292 51.239360809 -29.547084808 19.70986557 59.876243591 -28.943887711 20.523153305 61.497875214 
-28.947784424 20.867918015 61.713523865 -26.230327606 31.059452057 57.970935822 -26.270572662 31.174037933 58.313034058 
-27.333753586 24.681957245 63.048355103 -27.50113678 24.297374725 62.988830566 -27.704059601 23.942531586 62.92773819 
-28.156797409 22.89109993 62.713157654 -26.655447006 31.633260727 59.965976715 -29.42515564 19.473892212 58.988128662 
-29.26832962 19.374176025 58.66293335 -29.25286293 22.94745636 52.229194641 -29.147729874 23.283193588 51.97290802 
-28.676324844 24.945093155 51.318473816 -27.921072006 27.087915421 51.778392792 -26.118591309 30.381311417 56.173919678 
-27.242330551 25.095584869 63.105381012 
LINES 107 212
OFFSETS vtktypeint64
0 2 4 6 8 10 12 14 16 
18 20 22 24 26 28 30 32 34 
36 38 40 42 44 46 48 50 52 
54 56 58 60 62 64 66 68 70 
72 74 76 78 80 82 84 86 88 
90 92 94 96 98 100 102 104 106 
108 110 112 114 116 118 120 122 124 
126 128 130 132 134 136 138 140 142 
144 146 148 150 152 154 156 158 160 
162 164 166 168 170 172 174 176 178 
180 182 184 186 188 190 192 194 196 
198 200 202 204 206 208 210 212 
CONNECTIVITY vtktypeint64
0 1 1 2 3 4 5 6 7 
5 8 9 10 11 12 13 14 15 
15 16 16 17 18 19 20 21 21 
22 23 24 25 26 27 28 28 10 
11 29 30 31 32 33 34 35 36 
37 38 39 40 41 42 8 43 44 
45 46 46 47 48 49 50 43 51 
52 52 53 53 54 55 56 57 58 
59 60 61 62 63 64 65 66 67 
68 69 70 71 72 73 74 56 75 
70 76 76 77 77 78 78 51 66 
79 79 80 81 7 82 0 83 84 
2 85 31 3 86 59 87 65 88 
83 89 82 29 90 6 30 91 92 
62 86 33 14 17 18 19 20 93 
94 94 95 26 96 96 27 4 34 
39 97 92 40 49 42 44 45 47 
48 98 99 100 101 101 55 58 100 
60 57 9 63 102 87 103 67 22 
23 80 103 104 73 37 81 75 102 
105 93 74 12 85 88 99 50 97 
36 68 69 72 104 13 91 64 61 
35 32 41 38 84 98 95 25 24 
105 54 71 90 89 
CELL_DATA 106
SCALARS Edge%20Types float
LOOKUP_TABLE default
0 0 0 0 0 0 0 0 0 
0 0 0 0 0 0 0 0 0 
0 0 0 0 0 0 0 0 0 
0 0 0 0 0 0 0 0 0 
0 0 0 0 0 0 0 0 0 
0 0 0 0 0 0 0 0 0 
0 0 0 0 0 0 0 0 0 
0 0 0 0 0 0 0 0 0 
0 0 0 0 0 0 0 0 0 
0 0 0 0 0 0 0 0 0 
0 0 0 0 0 0 0 0 0 
0 0 0 0 0 0 0 
FIELD FieldData 2
Ids 1 106 vtkIdType
1375 1379 3253 3264 3265 3269 4615 6258 10999 
11000 12468 12499 12500 12528 12563 12591 12623 12661 
12662 22235 22239 22241 22268 22281 22284 22286 22295 
22296 22298 22299 22306 22310 22311 22312 22313 22314 
22315 22318 22325 23793 23934 23935 28010 28011 28365 
28414 28415 28416 28417 28419 28420 28773 32684 39832 
39833 41758 41770 42055 59532 63989 66378 66776 72638 
78239 86331 88790 88842 89003 89004 89062 89063 104857 
104909 104912 104917 104928 104931 104946 104951 104953 104957 
104958 104975 107435 107708 111326 114693 117687 122177 124480 
129824 132983 149489 154803 163622 166192 166505 178411 198160 
198876 204717 206958 215730 218039 228320 229834 
GroupIds 1 106 float
0 0 0 0 0 0 0 0 0 
0 0 0 0 0 0 0 0 0 
0 0 0 0 0 0 0 0 0 
0 0 0 0 0 0 0 0 0 
0 0 0 0 0 0 0 0 0 
0 0 0 0 0 0 0 0 0 
0 0 0 0 0 0 0 0 0 
0 0 0 0 0 0 0 0 0 
0 0 0 0 0 0 0 0 0 
0 0 0 0 0 0 0 0 0 
0 0 0 0 0 0 0 0 0 
0 0 0 0 0 0 0 
POINT_DATA 106
SCALARS Ids vtkIdType
LOOKUP_TABLE default
31383 1584 50904 14781 38742 3804 61689 3803 38787 
82174 8348 75190 25733 70421 30227 30228 1109 8233 
1532 8246 31248 50884 8262 1540 75110 50893 75164 
75165 31351 8365 14779 51630 51631 1096 3797 14782 
82138 25720 14801 38775 82145 38776 14805 3811 82154 
38796 14810 38797 82156 82151 51636 3813 38802 14819 
38803 38806 15715 38808 82166 3814 82167 3817 14825 
14828 38823 51741 4132 83309 15811 40047 4168 3808 
38784 38785 51970 39922 40044 15809 40045 15813 40049 
3802 8384 1585 89976 8387 51638 15713 93482 94041 
94173 66476 3807 1549 75139 31308 31326 82143 82161 
14816 38804 14820 39921 40046 14803 89960 
