# vtk DataFile Version 5.1
vtk output
ASCII
DATASET POLYDATA
POINTS 310 double
25.657075882 4.97660923 24.292255402 25.944635391 4.942551136 24.472911835 34.794914246 33.647731781 20.403011322 
34.40171051 33.660305023 20.434915543 23.409872055 5.1796717644 24.70116806 23.614192963 5.1785001755 24.907178879 
29.476892471 4.7612042427 24.023223877 29.792526245 4.7912068367 24.219093323 24.837985992 5.0730032921 24.400438309 
25.124397278 5.0409231186 24.231075287 25.387195587 5.0100297928 24.187784195 36.850898743 32.907093048 19.460031509 
36.590621948 33.058681488 19.665538788 35.976665497 4.6015429497 20.288564682 36.196308136 4.6239566803 20.05134201 
11.663691521 26.226192474 17.18819046 11.403479576 25.932495117 17.171321869 40.927253723 7.0027775764 15.678804398 
41.179824829 7.2669382095 15.538381577 29.599679947 34.668094635 22.319442749 29.20923996 34.64233017 22.352800369 
26.83780098 34.488319397 22.530824661 26.446464539 34.473888397 22.584497452 33.223960876 4.7003335953 22.669178009 
33.528217316 4.6743855476 22.470479965 33.817977905 4.6523208618 22.287500381 34.066455841 4.6350331306 22.072710037 
31.520124435 4.8857736588 24.617769241 31.865447998 4.8619117737 24.310100555 26.930089951 4.856045723 24.591783524 
27.306629181 4.8280882835 24.488994598 27.682792664 4.8007774353 24.365102768 21.23223114 5.2230062485 23.383401871 
21.58801651 5.1997942924 23.394804001 20.914283752 5.2599697113 23.340112686 32.510108948 34.474727631 21.632907867 
32.258228302 34.582736969 21.802711487 35.904499054 33.598800659 20.32922554 35.57881546 33.649894714 20.391141891 
32.715885162 34.312824249 21.399957657 33.336849213 33.845054626 20.738721848 33.090244293 33.970005035 20.920030594 
36.157325745 33.465312958 20.16919899 37.901546478 32.755916595 19.156839371 37.511329651 32.788150787 19.239002228 
39.056858063 31.845432281 18.483545303 38.953887939 32.130718231 18.638843536 38.814544678 32.383075714 18.795648575 
38.597724915 32.572818756 18.937623978 17.201429367 32.064727783 21.021987915 16.955183029 31.862827301 20.788406372 
17.728378296 32.390209198 21.396245956 17.439664841 32.248340607 21.236429214 16.658565521 31.672889709 20.580474854 
16.309602737 31.510475159 20.425476074 39.313697815 31.286237717 18.237787247 39.16400528 31.560811996 18.348306656 
15.588988304 31.188694 20.196388245 15.277244568 30.987953186 20.065374374 40.646366119 29.919525146 17.886035919 
40.316963196 30.20252037 17.942213058 41.262878418 29.417098999 17.772493362 40.9817276 29.660736084 17.832708359 
13.639765739 29.31208992 18.933200836 13.458079338 29.042352676 18.729499817 14.061712265 29.816871643 19.286647797 
13.837705612 29.563215256 19.11325264 14.296700478 30.067399979 19.453763962 14.526212692 30.303798676 19.610450745 
13.278115273 28.741937637 18.497753143 10.122570038 19.847566605 18.139638901 10.089417458 19.568162918 18.301952362 
9.9771490097 20.84355545 17.806739807 10.093044281 20.56986618 17.836349487 10.173451424 20.323675156 17.885051727 
10.17664814 20.093004227 17.986001968 9.8584737778 21.427757263 17.680589676 9.884935379 21.132638931 17.762269974 
10.120538712 17.69478035 19.175104141 10.041717529 17.431137085 19.338350296 10.308444023 18.233531952 18.817371368 
10.22385788 17.952421188 18.997543335 10.228596687 16.507982254 19.669546127 10.446436882 16.183065414 19.719736099 
10.668801308 15.871116638 19.760725021 10.845096588 15.552968025 19.81716156 10.960745811 15.214887619 19.897542953 
11.027452469 14.873147011 19.990121841 12.514762878 11.328059196 20.619380951 12.712457657 11.033387184 20.663579941 
12.98820591 10.781336784 20.687578201 13.277729988 10.516811371 20.722448349 13.506209373 10.221575737 20.787670135 
13.66034317 9.9167089462 20.876577377 13.790473938 9.6135129929 20.973749161 13.957252502 9.3086891174 21.067459106 
17.68214798 6.2715792656 22.107627869 18.055452347 6.1195626259 22.128746033 18.403038025 5.9831218719 22.163972855 
18.756347656 5.8665981293 22.202884674 17.279497147 6.4329209328 22.108602524 16.891122818 6.6043820381 22.108856201 
16.582143784 6.7974305153 22.056255341 36.824127197 4.7306084633 19.176092148 37.126228333 4.7698888779 18.936912537 
37.42861557 4.811507225 18.749811172 37.689296722 4.8692312241 18.556119919 36.380207062 4.6547288895 19.765838623 
36.573474884 4.691110611 19.464876175 19.851753235 5.5839409828 22.52604866 20.139968872 5.4856204987 22.771139145 
20.388637543 5.3922724724 23.026870728 20.635978699 5.3156547546 23.225914001 42.90051651 27.380109787 17.155473709 
42.641937256 27.621631622 17.223871231 42.036170959 28.160671234 17.361555099 41.81111908 28.489553452 17.468233109 
43.149875641 26.820205688 16.924098969 43.061988831 27.115440369 17.054010391 43.828735352 25.479372025 16.525892258 
43.612857819 25.720994949 16.553604126 44.055934906 25.211009979 16.498794556 12.101981163 26.784023285 17.313703537 
11.897580147 26.506349564 17.232540131 11.144006729 25.636365891 17.171676636 44.25213623 24.913175583 16.456745148 
10.91412735 25.35238266 17.179479599 10.72454071 25.071605682 17.18406105 10.574966431 24.76505661 17.175951004 
44.520027161 23.981800079 16.244895935 44.469924927 24.302951813 16.325428009 10.397618294 24.017557144 17.114555359 
10.364006042 23.626911163 17.081354141 10.465607643 24.409990311 17.151023865 44.634689331 22.560703278 15.927443504 
44.614238739 22.904006958 15.994598389 44.58921051 23.255247116 16.070613861 44.557899475 23.624794006 16.157022476 
10.183870316 22.496702194 17.221359253 10.0402174 22.103214264 17.382785797 9.9149312973 21.744161606 17.550298691 
44.714363098 19.807317734 15.569371223 44.707828522 20.231241226 15.608063698 44.730773926 17.885681152 15.426679611 
44.729442596 18.273416519 15.453414917 44.727218628 18.640659332 15.47915554 44.724021912 19.007062912 15.505702019 
44.71975708 19.394994736 15.535344124 44.732532501 16.19443512 15.314105034 44.731777191 16.623039246 15.34148407 
44.737731934 14.333004951 15.215703964 44.739887238 14.694532394 15.232187271 44.735969543 15.393519402 15.266934395 
44.733978271 15.77841568 15.288855553 44.677448273 13.619042397 15.167514801 44.723236084 13.96944809 15.196372986 
44.158531189 12.538885117 14.954371452 44.38885498 12.909694672 15.041931152 42.713493347 9.9354515076 14.667376518 
42.927848816 10.267222404 14.674949646 43.165840149 10.59767437 14.719713211 43.388095856 10.951814651 14.76815033 
42.270198822 8.7481107712 15.001293182 42.412284851 9.1696329117 14.847566605 42.546676636 9.5738887787 14.725101471 
41.665031433 7.7785606384 15.333298683 41.886127472 8.0424671173 15.248919487 42.09305191 8.3611297607 15.142361641 
39.710609436 5.8216609955 16.710264206 39.98828125 6.0301537514 16.493076324 40.22195816 6.2554035187 16.262521744 
40.448932648 6.4952845573 16.042118073 38.405483246 5.310426712 17.308361053 38.649490356 5.4044117928 17.12097168 
22.409505844 33.699859619 22.510314941 22.120767593 33.551761627 22.282686234 21.422801971 33.303600311 22.015573502 
21.039829254 33.16060257 21.892690659 18.52085495 32.52689743 21.500469208 18.096843719 32.480167389 21.482587814 
39.76871109 30.751096725 18.068857193 39.522449493 31.016256332 18.14601326 23.862325668 5.1678533554 24.954385757 
38.073223114 5.0767168999 17.945192337 38.230045319 5.2013130188 17.59277916 37.899932861 4.9583764076 18.288978577 
21.789388657 33.425323486 22.126441956 41.637901306 28.831521988 17.585926056 41.47121048 29.147727966 17.691568375 
42.327983856 27.871917725 17.282653809 16.208280563 7.2557277679 21.743913651 16.37471962 7.0209226608 21.919940948 
35.717876434 4.5908203125 20.435966492 28.044122696 4.7763819695 24.233421326 31.951185226 34.634490967 21.907678604 
32.690723419 4.7583212852 23.197702408 32.943454742 4.7282643318 22.906709671 29.138191223 4.745850563 23.958942413 
10.246097565 18.912052155 18.532936096 10.321637154 18.55950737 18.656257629 26.044332504 34.455856323 22.642356873 
25.636362076 34.432758331 22.701978683 30.097801208 4.829305172 24.496980667 28.404901505 4.7570075989 24.105897903 
35.194782257 33.652023315 20.398075104 32.896160126 34.131752014 21.146902084 33.650352478 33.755851746 20.601140976 
11.06616497 14.543507576 20.080644608 11.099762917 14.210010529 20.166023254 11.267254829 13.521177292 20.305120468 
11.467038155 13.236624718 20.334289551 11.735048294 12.996665955 20.340633392 11.995733261 12.748060226 20.351984024 
12.184724808 12.444610596 20.391658783 24.868408203 34.371929169 22.816320419 24.49266243 34.331325531 22.87938118 
24.086643219 34.278617859 22.955234528 19.806776047 32.688899994 21.493442535 19.380813599 32.603591919 21.465379715 
38.984535217 5.5058431625 17.001054764 39.364341736 5.6421861649 16.881195068 32.439231873 4.7920761108 23.548164368 
32.168182373 4.8283772469 23.93545723 26.249588013 4.9114599228 24.611730576 26.576055527 4.883415699 24.646219254 
36.369556427 33.264614105 19.924829483 10.139205933 19.254535675 18.429613113 34.469512939 4.6125235558 21.410749435 
34.670154572 4.6061134338 21.035924911 44.388679504 24.606588364 16.396986008 34.90089035 4.601041317 20.740953445 
35.162345886 4.5956840515 20.573537827 12.614583969 27.627124786 17.728759766 12.453332901 27.351530075 17.572921753 
15.940116882 31.358901978 20.309371948 10.017849922 17.14736557 19.478900909 10.076228142 16.837162018 19.590583801 
14.461618423 8.7175617218 21.233903885 14.734678268 8.4346237183 21.330516815 10.340579033 23.257959366 17.072538376 
10.289497375 22.88829422 17.113292694 18.954866409 32.557548523 21.480766296 30.325523376 34.676570892 22.202533722 
29.95964241 34.678314209 22.268928528 28.775222778 4.7455263138 24.002574921 20.645059586 32.991691589 21.738132477 
24.168663025 5.1436977386 24.841600418 24.510169983 5.109079361 24.62922287 43.575965881 11.341849327 14.803769112 
43.74621582 11.753635406 14.834367752 28.793779373 34.605758667 22.372945786 28.384466171 34.568824768 22.388883591 
15.436656952 7.7347269058 21.589593887 15.717809677 7.6020288467 21.588846207 22.718214035 5.1738772392 23.753992081 
22.99789238 5.1743869781 24.05532074 23.216856003 5.1770362854 24.392778397 21.975553513 5.1854043007 23.428197861 
22.367612839 5.1771349907 23.538812637 37.157390594 32.825416565 19.327243805 13.102495193 28.438148499 18.267477036 
12.936782837 28.158697128 18.06719017 12.775659561 27.894680023 17.892684937 35.440113068 4.5907492638 20.503116608 
40.683517456 6.7454857826 15.845715523 27.992631912 34.53912735 22.410263062 27.607526779 34.517677307 22.441827774 
27.223011017 34.501850128 22.482774734 15.003243446 30.76458931 19.917396545 40.029270172 30.483968735 18.002639771 
14.756601334 30.533653259 19.763357162 11.154855728 13.85910511 20.24489975 12.393968582 11.689049721 20.546007156 
14.187342644 9.0076799393 21.151842117 15.195570946 7.9158215523 21.544984818 15.994859695 7.4563097954 21.620563507 
34.277244568 4.6219315529 21.778772354 19.132068634 5.7676787376 22.254732132 43.217826843 26.513269424 16.790826797 
43.306804657 26.221826553 16.679004669 43.436416626 25.960313797 16.600545883 44.668048859 21.831274033 15.803636551 
44.652591705 22.201868057 15.863747597 44.691143036 21.066082001 15.698532104 44.680702209 21.456270218 15.748931885 
44.731533051 17.052080154 15.369934082 44.731357574 17.475646973 15.398625374 44.7382164 15.041209221 15.248542786 
44.571121216 13.270524025 15.117720604 43.934646606 12.156578064 14.880851746 41.43006134 7.5279402733 15.423815727 
31.140405655 4.8950147629 24.813522339 30.76115799 4.8877987862 24.861684799 25.241300583 34.404788971 22.759908676 
30.731208801 34.669651031 22.12638855 12.30254364 12.080117226 20.461732864 20.232545853 32.823051453 21.588781357 
30.413562775 4.8645682335 24.744663239 12.285301208 27.068393707 17.430994034 31.583566666 34.653579712 21.980340958 
31.165124893 34.662158966 22.050283432 38.283733368 32.692939758 19.058387756 23.279977798 34.1222229 23.045665741 
22.953493118 34.005683899 22.960786819 22.675081253 33.859550476 22.76402092 34.015300751 33.695781708 20.500854492 
19.509498596 5.6771793365 22.351459503 14.975464821 8.1592350006 21.444623947 44.70010376 20.654636383 15.651345253 
23.666845322 34.210533142 23.026670456 
LINES 311 620
OFFSETS vtktypeint64
0 2 4 6 8 10 12 14 16 
18 20 22 24 26 28 30 32 34 
36 38 40 42 44 46 48 50 52 
54 56 58 60 62 64 66 68 70 
72 74 76 78 80 82 84 86 88 
90 92 94 96 98 100 102 104 106 
108 110 112 114 116 118 120 122 124 
126 128 130 132 134 136 138 140 142 
144 146 148 150 152 154 156 158 160 
162 164 166 168 170 172 174 176 178 
180 182 184 186 188 190 192 194 196 
198 200 202 204 206 208 210 212 214 
216 218 220 222 224 226 228 230 232 
234 236 238 240 242 244 246 248 250 
252 254 256 258 260 262 264 266 268 
270 272 274 276 278 280 282 284 286 
288 290 292 294 296 298 300 302 304 
306 308 310 312 314 316 318 320 322 
324 326 328 330 332 334 336 338 340 
342 344 346 348 350 352 354 356 358 
360 362 364 366 368 370 372 374 376 
378 380 382 384 386 388 390 392 394 
396 398 400 402 404 406 408 410 412 
414 416 418 420 422 424 426 428 430 
432 434 436 438 440 442 444 446 448 
450 452 454 456 458 460 462 464 466 
468 470 472 474 476 478 480 482 484 
486 488 490 492 494 496 498 500 502 
504 506 508 510 512 514 516 518 520 
522 524 526 528 530 532 534 536 538 
540 542 544 546 548 550 552 554 556 
558 560 562 564 566 568 570 572 574 
576 578 580 582 584 586 588 590 592 
594 596 598 600 602 604 606 608 610 
612 614 616 618 620 
CONNECTIVITY vtktypeint64
0 1 2 3 4 5 6 7 8 
9 10 0 11 12 13 14 15 16 
17 18 19 20 21 22 23 24 25 
26 27 28 29 30 30 31 32 33 
34 32 35 36 37 38 39 35 40 
41 42 37 43 44 45 46 47 48 
49 50 51 52 53 54 55 56 57 
58 59 60 61 62 63 64 65 66 
67 65 68 67 64 69 70 71 72 
73 74 75 76 77 78 79 80 81 
82 83 83 84 85 86 86 87 88 
89 89 90 90 91 92 93 94 95 
96 97 98 99 100 96 101 100 102 
101 103 104 105 106 107 108 109 110 
110 111 111 112 113 114 115 116 117 
118 119 120 121 119 122 123 16 124 
125 121 124 126 127 128 129 130 131 
132 133 131 134 135 136 137 138 139 
139 140 141 142 143 144 144 145 146 
147 148 149 150 151 152 153 154 155 
155 150 156 157 158 159 160 161 162 
163 163 164 165 166 166 167 167 162 
168 169 170 171 172 173 174 175 176 
177 178 179 180 181 5 182 183 184 
106 185 175 186 187 188 189 115 190 
191 192 13 31 193 36 194 195 196 
91 92 197 6 179 51 198 199 200 
201 7 202 193 203 38 204 41 205 
205 39 206 40 207 208 209 210 210 
211 212 213 118 113 126 127 214 215 
215 216 217 218 219 220 221 195 28 
222 223 224 225 42 71 226 227 228 
229 125 230 231 232 233 112 34 54 
234 235 236 237 238 239 240 218 241 
242 243 244 197 177 245 1 223 246 
247 248 249 222 221 250 251 252 253 
228 230 254 255 256 4 9 10 257 
258 44 259 62 59 260 261 261 262 
262 232 199 80 69 260 263 192 231 
263 264 17 265 266 266 267 267 21 
24 25 196 23 203 244 224 29 33 
257 204 2 259 11 46 47 50 53 
52 49 234 57 181 55 56 45 58 
268 60 269 66 63 270 68 73 74 
140 76 236 82 84 85 271 209 211 
212 272 88 93 94 273 237 274 252 
253 275 191 102 104 105 108 103 14 
107 26 276 99 277 116 187 278 117 
279 278 120 280 123 15 137 129 130 
229 135 136 281 282 282 134 283 284 
147 141 145 146 149 285 285 286 286 
143 153 148 151 287 287 152 288 154 
289 156 157 288 249 289 159 160 290 
165 171 264 18 290 220 168 169 170 
184 172 269 180 291 27 240 138 188 
61 114 189 81 78 255 256 292 291 
201 293 294 242 268 270 87 207 213 
295 161 248 164 158 293 214 185 183 
247 8 295 272 296 217 20 250 79 
235 280 279 132 239 297 292 298 122 
251 265 194 299 300 294 48 301 12 
225 302 303 304 174 75 70 3 305 
284 281 202 297 299 300 305 206 301 
43 208 271 128 133 22 200 186 176 
233 298 182 246 306 109 303 304 241 
178 173 219 275 190 238 307 97 98 
308 283 226 198 243 19 309 302 142 
308 307 274 276 227 216 309 277 306 
77 72 95 273 258 254 245 296 
CELL_DATA 310
SCALARS Edge%20Types float
LOOKUP_TABLE default
0 0 0 0 0 0 0 0 0 
0 0 0 0 0 0 0 0 0 
0 0 0 0 0 0 0 0 0 
0 0 0 0 0 0 0 0 0 
0 0 0 0 0 0 0 0 0 
0 0 0 0 0 0 0 0 0 
0 0 0 0 0 0 0 0 0 
0 0 0 0 0 0 0 0 0 
0 0 0 0 0 0 0 0 0 
0 0 0 0 0 0 0 0 0 
0 0 0 0 0 0 0 0 0 
0 0 0 0 0 0 0 0 0 
0 0 0 0 0 0 0 0 0 
0 0 0 0 0 0 0 0 0 
0 0 0 0 0 0 0 0 0 
0 0 0 0 0 0 0 0 0 
0 0 0 0 0 0 0 0 0 
0 0 0 0 0 0 0 0 0 
0 0 0 0 0 0 0 0 0 
0 0 0 0 0 0 0 0 0 
0 0 0 0 0 0 0 0 0 
0 0 0 0 0 0 0 0 0 
0 0 0 0 0 0 0 0 0 
0 0 0 0 0 0 0 0 0 
0 0 0 0 0 0 0 0 0 
0 0 0 0 0 0 0 0 0 
0 0 0 0 0 0 0 0 0 
0 0 0 0 0 0 0 0 0 
0 0 0 0 0 0 0 0 0 
0 0 0 0 0 0 0 0 0 
0 0 0 0 0 0 0 0 0 
0 0 0 0 0 0 0 0 0 
0 0 0 0 0 0 0 0 0 
0 0 0 0 0 0 0 0 0 
0 0 0 0 
FIELD FieldData 2
Ids 1 310 vtkIdType
111 112 2442 2462 2463 2464 2483 2609 2613 
5744 17821 17826 18082 18083 18084 18093 18094 18100 
18101 18147 18179 18183 18184 18223 18226 18261 18262 
18265 18266 18268 18308 18310 18337 18339 18340 18341 
18342 18343 18385 18567 18568 18569 18571 18617 18618 
18671 18673 18674 18701 18783 18812 18813 18816 18853 
18928 18929 18934 18936 18939 18984 18985 18992 18994 
18995 18996 19006 19007 19009 19017 19018 19019 19020 
19024 19027 19028 19034 19035 19036 19048 19049 19070 
19071 19089 19108 19109 19110 19145 19158 19159 19173 
19174 19182 19197 19198 19209 19210 19224 19225 19226 
19242 19243 19253 22731 22749 22754 24561 27347 27453 
27455 28158 29564 31103 31458 31725 31734 31944 33015 
34607 35215 35750 37463 40833 40893 40894 40914 40915 
40916 40917 41036 41043 41050 41051 41097 41099 41833 
41835 41848 42739 44602 48356 48360 48382 48452 48515 
48522 51325 53961 55615 55627 55673 55691 55711 56078 
57107 57382 57997 60528 60917 61451 62974 64173 64223 
65533 66713 71155 71185 71190 71232 71276 71301 71302 
71303 71365 77148 77309 77311 77360 97694 97699 97700 
98179 98181 98187 98190 98197 98299 98386 98449 98452 
98454 98458 98536 98537 98538 98594 98603 98606 98966 
98972 99076 99121 99194 99234 99264 99310 99407 99408 
99455 99456 99612 99623 99625 99626 99635 99642 99645 
99654 99655 99657 99670 99672 99680 99692 99693 99706 
99721 99752 99786 99787 99788 99822 99843 99844 99861 
99875 99878 99896 99920 99955 99967 99968 99979 99982 
99990 108770 113042 113191 116518 116546 117116 119984 124433 
130884 130952 130990 131082 131090 131168 131172 131938 132869 
133749 138827 142137 142930 145882 145909 145913 146657 152056 
154252 162230 162234 162258 162259 163761 165475 165711 166569 
178215 182621 182650 182662 182676 182855 182964 189497 189963 
192210 196347 196439 196860 196863 197334 197922 200300 204226 
204237 207782 208496 214895 217532 218517 224368 225910 227386 
228138 228159 231565 232737 
GroupIds 1 310 float
0 0 0 0 0 0 0 0 0 
0 0 0 0 0 0 0 0 0 
0 0 0 0 0 0 0 0 0 
0 0 0 0 0 0 0 0 0 
0 0 0 0 0 0 0 0 0 
0 0 0 0 0 0 0 0 0 
0 0 0 0 0 0 0 0 0 
0 0 0 0 0 0 0 0 0 
0 0 0 0 0 0 0 0 0 
0 0 0 0 0 0 0 0 0 
0 0 0 0 0 0 0 0 0 
0 0 0 0 0 0 0 0 0 
0 0 0 0 0 0 0 0 0 
0 0 0 0 0 0 0 0 0 
0 0 0 0 0 0 0 0 0 
0 0 0 0 0 0 0 0 0 
0 0 0 0 0 0 0 0 0 
0 0 0 0 0 0 0 0 0 
0 0 0 0 0 0 0 0 0 
0 0 0 0 0 0 0 0 0 
0 0 0 0 0 0 0 0 0 
0 0 0 0 0 0 0 0 0 
0 0 0 0 0 0 0 0 0 
0 0 0 0 0 0 0 0 0 
0 0 0 0 0 0 0 0 0 
0 0 0 0 0 0 0 0 0 
0 0 0 0 0 0 0 0 0 
0 0 0 0 0 0 0 0 0 
0 0 0 0 0 0 0 0 0 
0 0 0 0 0 0 0 0 0 
0 0 0 0 0 0 0 0 0 
0 0 0 0 0 0 0 0 0 
0 0 0 0 0 0 0 0 0 
0 0 0 0 0 0 0 0 0 
0 0 0 0 
POINT_DATA 310
SCALARS Ids vtkIdType
LOOKUP_TABLE default
23171 2919 12230 87387 65271 2889 2917 90205 35691 
65300 2920 35792 35790 12669 36377 12679 79810 69827 
79935 2838 11962 35447 35449 2915 35679 79207 2914 
2885 12181 79213 79214 12186 35694 79218 35695 2930 
35723 2935 51318 35756 51320 35755 35791 2947 35793 
35822 35823 79324 2946 79329 79327 2954 35825 2952 
92985 12283 79357 35859 79359 2973 12302 2972 35890 
79384 35926 12304 35892 35893 79385 12324 12438 3008 
3009 79542 3010 36094 79547 12439 36132 3017 12464 
86728 3021 3023 79608 12494 3024 12510 36246 3044 
36262 3049 36264 79680 3050 12591 12631 79749 36343 
3070 36346 12634 3066 3084 36372 79790 3081 79795 
12670 36379 12672 36380 2922 3088 86572 12673 36385 
12674 51395 12678 79808 3091 36394 79809 36395 12683 
51396 36396 79811 36399 79816 51400 36408 79817 12693 
79819 36404 79815 36416 12702 3006 36431 12706 36440 
12720 36441 79854 79841 36458 36450 36469 79885 79886 
79877 79894 36480 12754 36488 36509 12772 79916 90245 
36519 36521 51408 79930 12786 36533 79941 36546 79942 
79934 79944 3107 39152 3916 3917 51667 39164 39163 
83798 79356 2888 12801 43006 36551 39154 12322 86563 
3089 12612 36321 3085 51310 79238 35681 79208 52188 
89392 3013 90190 90192 35683 12187 79263 51319 35758 
90234 3029 36204 3034 36223 3037 90237 90423 39122 
3902 15103 51668 36552 3106 35682 35680 12189 12188 
12248 91849 91860 3086 3093 12671 3087 2989 92704 
2955 92988 36158 3059 51380 92994 36407 3920 12231 
93188 2918 52173 12117 12190 36498 79910 11964 94061 
3060 79728 61636 23099 12118 65304 2921 79296 2980 
65394 12337 69797 12793 35445 11966 78983 35858 2963 
2964 12527 12555 3055 36298 3065 36378 36381 3090 
79806 12677 79827 79828 79835 12700 79864 79866 36470 
36479 36486 36531 35589 35588 39121 90208 91852 3919 
2886 49679 79240 35725 79295 39125 3903 85862 79268 
51394 12603 79834 15074 
