# vtk DataFile Version 5.1
vtk output
ASCII
DATASET POLYDATA
POINTS 13293 double
57.859600067 33.093200684 87.50969696 58.320598602 32.36289978 88.714103699 58.397800446 33.047599792 87.827400208 
57.677600861 32.520900726 88.241996765 57.248100281 33.138500214 87.092201233 57.103401184 32.598300934 87.79119873 
56.685901642 33.129600525 86.687599182 56.57170105 32.669799805 87.220802307 56.203300476 33.083698273 86.295402527 
56.011398315 32.826400757 86.401901245 64.226196289 32.019001007 90.216201782 64.396697998 31.101299286 91.432899475 
65.004096985 31.593200684 90.430297852 63.592601776 31.241500854 91.378196716 63.287399292 32.062198639 90.518096924 
62.8227005 31.276699066 91.265602112 62.520599365 32.095798492 90.395797729 62.128700256 31.283899307 91.015701294 
61.836101532 32.100200653 90.135101318 61.466201782 31.29129982 90.70400238 61.171398163 32.115100861 89.817298889 
60.825199127 31.318099976 90.383102417 60.525901794 32.145301819 89.534797668 60.202899933 31.374000549 90.081298828 
59.899898529 32.198600769 89.330703735 59.580898285 31.483600616 89.772201538 59.315601349 32.333900452 89.047096252 
58.905799866 31.691099167 89.396003723 58.803600311 32.537200928 88.707099915 58.364299774 31.474199295 89.213699341 
57.899398804 31.679800034 88.862800598 57.34569931 31.794900894 88.445198059 56.793300629 31.880399704 87.958900452 
56.223201752 32.024501801 87.251602173 55.661499023 32.572799683 86.156196594 55.625 31.808300018 86.833900452 
55.170600891 32.357398987 85.819602966 55.066200256 31.67029953 86.495903015 54.628700256 32.16350174 85.521202087 
54.493499756 31.580699921 86.12159729 54.09469986 32.003398895 85.228302002 53.961799622 31.60269928 85.586898804 
63.699699402 30.270500183 91.939300537 62.965000153 30.318599701 91.760101318 62.273200989 30.336999893 91.51309967 
61.608100891 30.352800369 91.210296631 60.965400696 30.381299973 90.879600525 60.33990097 30.431200027 90.53679657 
59.729000092 30.508899689 90.182296753 59.126998901 30.613300323 89.80670166 58.540699005 30.669500351 89.444801331 
57.996200562 30.722200394 89.085098267 57.462799072 30.817300797 88.694702148 56.914798737 30.88820076 88.289001465 
56.363300323 30.944200516 87.850799561 55.796199799 30.936500549 87.442298889 55.192798615 30.862499237 87.133796692 
54.579498291 30.805200577 86.8227005 53.881500244 30.79750061 86.381202698 53.435398102 31.257299423 85.390899658 
52.972499847 30.460800171 86.234298706 52.736499786 30.933599472 85.285499573 52.05329895 30.253599167 86.201301575 
51.94960022 30.657499313 85.389198303 51.129699707 30.121400833 86.098899841 51.147499084 30.499300003 85.226097107 
50.47990036 30.063800812 85.75969696 62.92539978 29.262800217 92.006896973 62.227600098 29.288700104 91.75050354 
61.57460022 29.315099716 91.449897766 60.938598633 29.350400925 91.114303589 60.326698303 29.39909935 90.751998901 
59.738399506 29.462600708 90.367897034 59.146499634 29.544700623 89.966201782 58.555400848 29.627399445 89.557701111 
57.981201172 29.698099136 89.155296326 57.412899017 29.764299393 88.766998291 56.837501526 29.819599152 88.40019989 
56.246700287 29.853599548 88.062599182 55.634998322 29.859800339 87.763702393 54.993198395 29.832799911 87.517700195 
54.312301636 29.786600113 87.314903259 53.592899323 29.737699509 87.113800049 52.762901306 29.636199951 86.969703674 
51.782398224 29.508800507 86.930900574 50.760501862 29.452600479 86.861602783 49.730800629 29.408700943 86.49710083 
49.544998169 29.770799637 85.508201599 48.314601898 29.106500626 86.038597107 62.094100952 28.167100906 91.891799927 
61.426898956 28.195400238 91.602798462 60.778598785 28.232099533 91.279403687 60.154201508 28.27930069 90.925598145 
59.53950119 28.339899063 90.546302795 58.921199799 28.414499283 90.147003174 58.327598572 28.489299774 89.736198425 
57.720298767 28.562599182 89.331497192 57.116100311 28.624599457 88.945999146 56.506599426 28.671699524 88.592399597 
55.884601593 28.700500488 88.279098511 55.245300293 28.70980072 88.010398865 54.553199768 28.686700821 87.821502686 
53.825500488 28.645500183 87.688102722 53.032100677 28.586900711 87.616096497 52.143398285 28.518600464 87.590797424 
51.046398163 28.465499878 87.648696899 50.005500793 28.49379921 87.607597351 49.275501251 28.664300919 87.332099915 
47.902301788 28.368099213 87.046096802 47.138900757 28.507299423 86.1588974 46.338001251 27.770700455 86.579399109 
61.215698242 27.050800323 91.722801208 60.542598724 27.086999893 91.41570282 59.876701355 27.136199951 91.080200195 
59.234798431 27.194000244 90.716598511 58.582000732 27.26499939 90.33380127 57.952301025 27.335800171 89.939002991 
57.333099365 27.400600433 89.548202515 56.691200256 27.459899902 89.177101135 56.042598724 27.503499985 88.838500977 
55.380901337 27.5291996 88.542701721 54.644901276 27.513799667 88.355102539 53.902500153 27.488899231 88.199501038 
53.096599579 27.440700531 88.125900269 52.23910141 27.388799667 88.097999573 51.17660141 27.329900742 88.198600769 
50.007198334 27.305200577 88.3309021 48.938499451 27.358600616 88.294898987 47.891899109 27.594299316 87.968200684 
46.694698334 27.452199936 87.454498291 46.058898926 26.630199432 88.014297485 60.228599548 25.937299728 91.565002441 
60.953899384 25.899400711 91.84929657 59.527500153 25.984199524 91.250900269 58.848999023 26.038900375 90.910598755 
58.15530014 26.105499268 90.553901672 57.482200623 26.17140007 90.186302185 56.821399689 26.231399536 89.820999146 
56.154800415 26.281000137 89.475502014 55.458198547 26.319799423 89.164299011 54.676101685 26.313899994 88.969299316 
53.868499756 26.290599823 88.826301575 53.068500519 26.26709938 88.695297241 52.16809845 26.216299057 88.676200867 
51.15309906 26.169700623 88.732498169 50.026000977 26.142499924 88.864501953 48.850898743 26.120399475 89.001098633 
47.791900635 26.169500351 88.962303162 46.819400787 26.380599976 88.681098938 45.10710144 25.573900223 88.518997192 
59.878398895 24.787000656 91.72190094 60.634899139 24.75110054 91.986099243 59.13420105 24.830099106 91.430496216 
58.410301208 24.880800247 91.117996216 57.67029953 24.941900253 90.794502258 56.947799683 25.001199722 90.462501526 
56.234500885 25.054199219 90.134597778 55.516498566 25.097299576 89.825500488 54.709499359 25.100099564 89.624000549 
53.84349823 25.083200455 89.488296509 52.982299805 25.064699173 89.364997864 52.114898682 25.045700073 89.260597229 
51.088798523 25.000999451 89.301498413 49.972801208 24.979099274 89.41280365 48.849201202 24.965000153 89.524299622 
47.791698456 24.97879982 89.578102112 46.715999603 25.000299454 89.507896423 45.730300903 25.196800232 89.20110321 
44.118000031 24.464399338 88.730697632 59.530101776 23.652599335 91.852401733 60.325698853 23.616199493 92.101097107 
58.737300873 23.687200546 91.569702148 57.956798553 23.731800079 91.275497437 57.164600372 23.788799286 90.986099243 
56.388301849 23.841299057 90.695602417 55.616699219 23.886100769 90.412101746 54.776699066 23.897399902 90.214500427 
53.904399872 23.894399643 90.061203003 52.988300323 23.877500534 89.959503174 52.0768013 23.870700836 89.85030365 
51.126098633 23.863700867 89.773498535 50.011901855 23.839399338 89.853599548 48.89899826 23.827100754 89.946899414 
47.864700317 23.846500397 90.001403809 46.828701019 23.877599716 89.970199585 46.078098297 24.055599213 89.816001892 
44.701099396 23.905399323 89.454696655 43.175701141 23.428699493 88.412002563 59.222801208 22.587299347 91.903800964 
60.037399292 22.521600723 92.130897522 58.409099579 22.605699539 91.588302612 57.541500092 22.620100021 91.248001099 
56.67950058 22.685300827 90.972900391 55.846500397 22.734699249 90.722503662 54.967399597 22.752199173 90.538398743 
54.067501068 22.755699158 90.387802124 53.12789917 22.747200012 90.286201477 52.17950058 22.745800018 90.196098328 
51.228298187 22.763000488 90.095901489 50.219299316 22.788600922 90.036399841 49.109699249 22.777200699 90.092903137 
48.024799347 22.77120018 90.152603149 47.003898621 22.819900513 90.169197083 46.260700226 23.016799927 90.108200073 
44.846000671 22.891000748 89.720100403 43.406799316 22.8227005 88.861503601 43.361698151 22.272499084 88.734298706 
59.800098419 21.527299881 91.98059845 60.905700684 22.47480011 92.328796387 60.703601837 21.458599091 92.16179657 
58.954799652 21.623600006 91.753997803 58.305301666 21.799499512 91.523399353 57.230800629 21.555599213 90.858299255 
56.21490097 21.700799942 90.542999268 55.274101257 21.743200302 90.36920166 54.338298798 21.753000259 90.232696533 
53.383800507 21.747499466 90.125701904 52.397098541 21.735399246 90.057502747 51.430198669 21.756299973 89.966598511 
50.416599274 21.807800293 89.908500671 49.418800354 21.872900009 89.832496643 48.332000732 21.896900177 89.862297058 
47.271800995 21.909999847 89.904502869 46.28150177 21.960100174 89.915100098 45.25579834 22.108299255 89.751098633 
43.850700378 21.9375 88.846000671 44.134998322 21.535900116 88.652198792 59.649600983 20.727199554 91.491699219 
60.590698242 20.618600845 91.669898987 58.780498505 20.848800659 91.369598389 57.848999023 20.981800079 90.930397034 
56.52399826 20.77009964 89.534896851 57.307098389 20.524799347 89.702003479 55.631999969 20.944900513 89.538902283 
54.637699127 20.97590065 89.438102722 53.651000977 20.96969986 89.365501404 52.641601562 20.94949913 89.30670166 
51.635700226 20.937799454 89.238800049 50.597999573 20.956600189 89.198303223 49.578399658 21.02930069 89.1434021 
48.581401825 21.14509964 89.067596436 47.527500153 21.226299286 89.074203491 46.523799896 21.275299072 89.122596741 
45.618000031 21.332099915 89.125999451 44.932998657 21.468000412 89.10559845 60.635501862 20.086700439 91.004798889 
61.520401001 20.513000488 91.81539917 61.328300476 19.853599548 90.717399597 59.590999603 20.143100739 90.342903137 
58.68239975 20.382299423 90.582199097 58.064399719 20.525800705 90.60030365 60.866798401 34.189098358 85.938697815 
[...]
CELL_DATA 26324
FIELD FieldData 1
vtkOriginalCellIds 1 26324 vtkIdType
0 1 2 3 4 5 6 7 10 
11 12 13 14 15 16 17 18 19 
20 21 22 23 24 25 26 27 28 
29 30 31 32 33 34 35 36 37 
38 39 40 41 42 43 44 45 54 
56 57 58 59 60 61 62 63 64 
65 66 67 68 69 70 71 72 73 
74 75 76 77 78 79 80 81 82 
83 84 85 86 87 88 89 90 91 
92 93 94 95 108 110 111 112 113 
114 115 116 117 118 119 120 121 122 
123 124 125 126 127 128 129 130 131 
132 133 134 135 136 137 138 139 140 
141 142 143 144 145 146 147 148 149 
164 166 167 168 169 170 171 172 173 
174 175 176 177 178 179 180 181 182 
183 184 185 186 187 188 189 190 191 
192 193 194 195 196 197 198 199 200 
201 202 203 204 205 222 224 225 226 
227 228 229 230 231 232 233 234 235 
236 237 238 239 240 241 242 243 244 
245 246 247 248 249 250 251 252 253 
254 255 256 257 258 259 260 261 282 
283 284 285 286 287 288 289 290 291 
292 293 294 295 296 297 298 299 300 
301 302 303 304 305 306 307 308 309 
310 311 312 313 314 315 316 317 338 
339 340 341 342 343 344 345 346 347 
348 349 350 351 352 353 354 355 356 
357 358 359 360 361 362 363 364 365 
366 367 368 369 370 371 372 373 394 
395 396 397 398 399 400 401 402 403 
404 405 406 407 408 409 410 411 412 
413 414 415 416 417 418 419 420 421 
422 423 424 425 426 427 428 429 450 
451 452 453 454 455 456 457 458 459 
460 461 462 463 464 465 466 467 468 
469 470 471 472 473 474 475 476 477 
478 479 480 481 482 483 484 485 504 
505 506 507 508 509 510 511 512 513 
514 515 516 517 518 519 520 521 522 
523 524 525 526 527 528 529 530 531 
532 533 534 535 536 537 538 539 558 
559 560 561 562 563 564 565 566 567 
568 569 570 571 572 573 574 575 576 
577 578 579 580 581 582 583 584 585 
586 587 588 589 590 591 607 608 609 
610 611 612 613 614 615 622 623 624 
625 626 627 628 629 630 631 632 633 
634 635 636 637 638 639 640 641 642 
643 644 645 646 647 648 649 650 651 
652 653 654 655 656 657 658 659 660 
661 662 663 664 665 666 667 668 669 
670 671 672 673 674 675 676 677 678 
679 680 681 682 683 684 685 686 687 
688 689 690 691 692 693 694 695 696 
697 698 699 700 701 702 703 704 705 
706 707 708 709 710 711 712 713 714 
715 716 717 718 719 720 721 722 723 
724 725 726 727 728 729 730 731 732 
733 734 735 736 737 738 739 740 741 
742 743 744 745 746 747 748 749 750 
751 752 753 754 755 756 757 758 759 
760 761 762 763 764 765 766 767 768 
769 770 771 772 773 774 775 776 777 
778 779 789 791 793 794 795 796 797 
798 799 800 801 802 803 804 805 806 
807 808 809 810 811 812 813 814 815 
816 817 830 831 832 833 834 835 836 
837 838 839 840 841 842 843 844 845 
856 857 858 859 860 861 862 863 864 
865 866 867 875 876 877 878 879 880 
881 889 890 891 892 893 894 895 903 
904 905 906 907 908 909 910 916 917 
918 919 920 921 922 923 932 933 934 
935 936 937 938 939 940 941 942 943 
944 945 946 947 954 955 956 957 958 
959 960 961 962 963 964 965 966 967 
968 969 970 971 984 985 986 987 988 
989 990 991 992 993 994 995 996 997 
998 999 1000 1001 1002 1003 1004 1005 1006 
1007 1008 1009 1010 1011 1012 1013 1014 1015 
1016 1017 1018 1019 1020 1021 1022 1023 1024 
1025 1026 1027 1028 1029 1030 1031 1032 1033 
1034 1035 1036 1037 1038 1039 1040 1041 1042 
1043 1044 1045 1046 1047 1048 1049 1050 1051 
1052 1053 1054 1055 1056 1057 1058 1059 1060 
1061 1062 1063 1064 1065 1066 1067 1068 1069 
1070 1071 1072 1073 1074 1075 1076 1077 1078 
1105 1106 1108 1109 1110 1111 1112 1113 1114 
1115 1116 1117 1118 1119 1120 1121 1122 1123 
1124 1125 1126 1127 1128 1129 1130 1131 1132 
1133 1144 1145 1146 1147 1148 1149 1150 1151 
1152 1153 1154 1155 1156 1157 1158 1159 1160 
1161 1162 1163 1164 1165 1166 1167 1168 1169 
1170 1171 1172 1173 1174 1175 1176 1177 1178 
1179 1180 1181 1182 1183 1184 1185 1186 1187 
1188 1189 1190 1191 1192 1193 1194 1195 1196 
1197 1198 1199 1200 1201 1202 1203 1204 1205 
1206 1207 1208 1209 1210 1211 1212 1213 1214 
1215 1216 1217 1218 1219 1220 1221 1222 1223 
1224 1225 1226 1227 1228 1229 1230 1231 1232 
1233 1234 1235 1236 1237 1238 1239 1240 1241 
1242 1243 1244 1245 1246 1247 1248 1249 1250 
1251 1252 1253 1254 1255 1256 1257 1258 1259 
1260 1261 1262 1263 1264 1265 1266 1267 1268 
1269 1270 1271 1272 1273 1274 1275 1276 1277 
1278 1279 1280 1281 1282 1283 1284 1285 1286 
1287 1288 1289 1290 1291 1292 1293 1294 1295 
1296 1297 1298 1299 1300 1301 1302 1303 1304 
1305 1306 1307 1308 1309 1310 1311 1312 1313 
1314 1315 1316 1317 1318 1319 1320 1321 1322 
1323 1324 1325 1326 1327 1328 1329 1330 1331 
1332 1333 1334 1335 1336 1337 1338 1339 1340 
1341 1342 1343 1344 1345 1346 1347 1348 1349 
1350 1351 1352 1353 1354 1355 1356 1357 1358 
1359 1360 1361 1362 1363 1364 1365 1366 1367 
1368 1369 1370 1371 1372 1373 1374 1375 1376 
1377 1378 1379 1380 1381 1382 1383 1384 1385 
1386 1387 1388 1389 1390 1391 1392 1393 1394 
1395 1396 1397 1398 1399 1400 1401 1402 1403 
1404 1405 1406 1407 1408 1409 1410 1411 1412 
1413 1414 1415 1416 1417 1418 1419 1420 1421 
1422 1423 1424 1425 1426 1427 1428 1429 1430 
1431 1432 1433 1434 1435 1436 1437 1438 1439 
1440 1441 1442 1443 1444 1445 1446 1447 1448 
1449 1450 1451 1452 1453 1454 1455 1456 1457 
1458 1459 1460 1461 1462 1463 1464 1465 1466 
1467 1468 1472 1473 1474 1475 1476 1477 1478 
1479 1480 1481 1482 1483 1484 1485 1486 1487 
1488 1489 1490 1491 1492 1493 1494 1495 1496 
1501 1502 1503 1504 1505 1506 1507 1508 1509 
1510 1511 1512 1513 1514 1515 1516 1517 1518 
1519 1520 1521 1529 1530 1531 1532 1533 1534 
1535 1536 1537 1538 1539 1540 1541 1542 1543 
1544 1545 1546 1547 1548 1553 1554 1555 1556 
1557 1558 1559 1560 1561 1562 1563 1564 1565 
1566 1567 1568 1569 1570 1572 1578 1579 1580 
1581 1582 1583 1584 1585 1586 1587 1588 1589 
1590 1591 1592 1593 1594 1603 1604 1605 1606 
1607 1608 1609 1610 1611 1612 1613 1614 1615 
1616 1617 1634 1635 1636 1637 1638 1639 1640 
1641 1642 1643 1644 1645 1646 1647 1648 1649 
1659 1660 1661 1662 1663 1664 1665 1666 1667 
1668 1669 1670 1671 1672 1673 1674 1675 1676 
1677 1678 1679 1680 1681 1682 1683 1684 1685 
1686 1687 1688 1689 1690 1691 1692 1693 1694 
1695 1696 1697 1698 1699 1700 1701 1702 1703 
1704 1712 1713 1714 1715 1716 1717 1718 1719 
1720 1721 1722 1723 1724 1725 1726 1727 1728 
1729 1730 1731 1732 1733 1734 1735 1736 1737 
1738 1739 1740 1741 1742 1743 1744 1745 1746 
1747 1748 1749 1750 1751 1752 1753 1754 1755 
1756 1757 1758 1759 1760 1761 1762 1763 1764 
1765 1766 1767 1768 1769 1770 1771 1772 1773 
1774 1775 1776 1777 1778 1779 1780 1781 1782 
1783 1784 1785 1786 1787 1788 1789 1790 1791 
1792 1793 1794 1795 1796 1797 1798 1799 1800 
1801 1802 1803 1804 1805 1806 1807 1808 1809 
1810 1811 1812 1813 1814 1815 1816 1817 1818 
1819 1820 1821 1822 1823 1824 1825 1826 1827 
1828 1829 1830 1831 1832 1833 1834 1835 1836 
1837 1838 1839 1840 1841 1842 1843 1853 1854 
1855 1856 1857 1858 1859 1860 1861 1862 1863 
1864 1865 1866 1867 1868 1869 1870 1871 1872 
1873 1874 1875 1876 1877 1878 1879 1880 1881 
1882 1883 1884 1885 1886 1887 1888 1889 1890 
1891 1892 1893 1894 1895 1896 1897 1898 1899 
1900 1901 1902 1903 1904 1905 1906 1907 1908 
1909 1910 1911 1912 1913 1914 1915 1916 1917 
1918 1919 1920 1921 1922 1923 1924 1925 1926 
1927 1928 1929 1930 1931 1932 1933 1934 1935 
1936 1937 1938 1939 1940 1941 1942 1943 1944 
1945 1946 1947 1948 1949 1950 1951 1952 1953 
1954 1955 1956 1957 1958 1959 1960 1961 1962 
1963 1964 1965 1966 1967 1968 1969 1970 1971 
1972 1973 1974 1975 1976 1977 1978 1979 1980 
1981 1982 1983 1984 1985 1986 1987 1988 1989 
1990 1991 1992 1993 1994 1995 1996 1997 1998 
1999 2000 2001 2002 2003 2004 2005 2006 2007 
2008 2009 2010 2011 2012 2013 2014 2015 2016 
2017 2018 2019 2020 2021 2022 2023 2024 2025 
2026 2027 2028 2029 2030 2031 2032 2033 2034 
2035 2036 2037 2038 2039 2040 2041 2042 2043 
2044 2045 2046 2047 2048 2049 2050 2051 2052 
2053 2054 2055 2056 2057 2058 2059 2060 2061 
2062 2063 2064 2065 2066 2067 2068 2069 2070 
2071 2072 2073 2074 2075 2076 2077 2078 2079 
2080 2081 2082 2083 2084 2085 2086 2087 2088 
2089 2090 2091 2092 2093 2094 2095 2096 2097 
2098 2099 2100 2101 2102 2103 2104 2105 2106 
2107 2108 2109 2110 2111 2112 2113 2114 2115 
2116 2117 2118 2119 2120 2121 2122 2123 2124 
2125 2126 2127 2128 2129 2130 2131 2132 2133 
2134 2135 2136 2137 2138 2139 2140 2141 2142 
2143 2144 2145 2146 2147 2148 2149 2150 2151 
2152 2153 2154 2155 2156 2157 2158 2159 2160 
2161 2162 2163 2164 2165 2166 2167 2168 2169 
2170 2171 2172 2173 2174 2175 2176 2177 2178 
2179 2180 2181 2182 2183 2184 2185 2186 2187 
2188 2189 2190 2191 2192 2193 2194 2195 2196 
2197 2198 2199 2200 2201 2202 2203 2204 2205 
2206 2207 2208 2209 2210 2211 2212 2213 2214 
2215 2216 2217 2218 2219 2220 2221 2222 2223 
2224 2225 2226 2227 2228 2229 2230 2231 2232 
2233 2234 2235 2236 2237 2238 2239 2240 2241 
2242 2243 2244 2245 2246 2247 2248 2249 2250 
2251 2252 2253 2254 2255 2256 2257 2258 2259 
2260 2261 2262 2263 2264 2265 2266 2267 2268 
2269 2270 2271 2272 2273 2274 2275 2276 2277 
2278 2279 2280 2281 2282 2283 2284 2285 2286 
2287 2288 2289 2290 2291 2292 2293 2294 2295 
2296 2297 2298 2299 2300 2301 2302 2303 2304 
2305 2306 2307 2308 2309 2310 2311 2312 2313 
2314 2315 2316 2317 2318 2319 2320 2321 2322 
2323 2324 2325 2326 2327 2328 2329 2330 2331 
2332 2333 2334 2335 2336 2337 2338 2339 2340 
2341 2342 2343 2344 2345 2346 2347 2348 2349 
2350 2351 2352 2353 2354 2355 2356 2357 2358 
2359 2360 2361 2362 2363 2364 2365 2366 2367 
2368 2369 2370 2371 2372 2373 2374 2375 2376 
2377 2378 2379 2380 2381 2382 2383 2384 2385 
2386 2387 2388 2389 2390 2391 2392 2393 2394 
2395 2396 2397 2398 2399 2400 2401 2402 2403 
2404 2405 2406 2407 2408 2409 2410 2411 2412 
2413 2414 2415 2416 2417 2418 2419 2420 2421 
2422 2423 2424 2425 2426 2427 2428 2429 2430 
2431 2432 2433 2434 2435 2436 2437 2438 2439 
2440 2441 2442 2443 2444 2445 2446 2447 2448 
2449 2450 2451 2452 2453 2454 2455 2456 2457 
2458 2459 2460 2461 2462 2463 2464 2465 2466 
2467 2468 2469 2470 2471 2472 2473 2474 2475 
2476 2477 2478 2479 2480 2481 2482 2483 2484 
2485 2486 2487 2488 2489 2490 2491 2492 2493 
2494 2495 2496 2497 2498 2499 2500 2501 2502 
2503 2504 2505 2506 2507 2508 2509 2510 2511 
2512 2513 2514 2515 2516 2517 2518 2519 2520 
2521 2522 2523 2524 2525 2526 2527 2528 2529 
2530 2531 2532 2533 2534 2535 2536 2537 2538 
2539 2540 2541 2542 2543 2544 2545 2546 2547 
2548 2549 2550 2551 2552 2553 2554 2555 2556 
2557 2558 2559 2560 2561 2562 2563 2564 2565 
2566 2567 2568 2569 2570 2571 2572 2573 2574 
2575 2576 2577 2578 2579 2580 2581 2582 2583 
2584 2585 2586 2587 2588 2589 2590 2591 2592 
2593 2594 2595 2596 2597 2598 2599 2600 2601 
2602 2603 2604 2605 2606 2607 2608 2609 2610 
2611 2612 2613 2614 2615 2616 2617 2618 2619 
2620 2621 2622 2623 2624 2625 2626 2627 2628 
2629 2630 2631 2632 2633 2634 2635 2636 2637 
2638 2639 2640 2641 2642 2643 2644 2645 2646 
2647 2648 2649 2650 2651 2652 2653 2654 2655 
2656 2657 2658 2659 2660 2661 2662 2663 2664 
2665 2666 2667 2668 2669 2670 2671 2672 2673 
2674 2675 2676 2677 2678 2679 2680 2681 2682 
2683 2684 2685 2686 2687 2688 2689 2690 2691 
2692 2693 2694 2695 2696 2697 2698 2699 2700 
2701 2702 2703 2704 2705 2706 2707 2708 2709 
2710 2711 2712 2713 2714 2715 2716 2717 2718 
2719 2720 2721 2722 2723 2724 2725 2726 2727 
2728 2729 2730 2731 2732 2733 2734 2735 2736 
2737 2738 2739 2740 2741 2742 2743 2744 2745 
2746 2747 2748 2749 2750 2751 2752 2753 2754 
2755 2756 2757 2758 2759 2760 2761 2762 2763 
2764 2765 2766 2767 2768 2769 2770 2771 2772 
2773 2774 2775 2776 2777 2778 2779 2780 2781 
2782 2783 2784 2785 2786 2787 2788 2789 2790 
2791 2792 2793 2794 2795 2796 2797 2798 2799 
2800 2801 2802 2803 2804 2805 2806 2807 2808 
2809 2810 2811 2812 2813 2814 2815 2816 2817 
2818 2819 2820 2821 2822 2823 2824 2825 2826 
2827 2828 2829 2830 2831 2832 2833 2834 2835 
2836 2837 2838 2839 2840 2841 2842 2843 2844 
2845 2846 2847 2848 2849 2850 2851 2852 2853 
2854 2855 2856 2857 2858 2859 2860 2861 2862 
2863 2864 2865 2866 2867 2868 2869 2870 2871 
2872 2873 2874 2875 2876 2877 2878 2879 2880 
2881 2882 2883 2884 2885 2886 2887 2888 2889 
2890 2891 2892 2893 2894 2895 2896 2897 2898 
2899 2900 2901 2902 2903 2904 2905 2906 2907 
2908 2909 2910 2911 2912 2913 2914 2915 2916 
2917 2918 2919 2920 2921 2922 2923 2924 2925 
2926 2927 2928 2929 2930 2931 2932 2933 2934 
2935 2936 2937 2938 2939 2940 2941 2942 2943 
2944 2945 2946 2947 2948 2949 2950 2951 2952 
2953 2954 2955 2956 2957 2958 2959 2960 2961 
2962 2963 2964 2965 2966 2967 2968 2969 2970 
2971 2972 2973 2974 2975 2976 2977 2978 2979 
2980 2981 2982 2983 2984 2985 2986 2987 2988 
2989 2990 2991 2992 2993 2994 2995 2996 2997 
2998 2999 3000 3001 3002 3003 3004 3005 3006 
3007 3008 3009 3010 3011 3012 3013 3014 3015 
3016 3017 3018 3019 3020 3021 3022 3023 3024 
3025 3026 3027 3028 3029 3030 3031 3032 3033 
3034 3035 3036 3037 3038 3039 3040 3041 3042 
3043 3044 3045 3046 3047 3048 3049 3050 3051 
3052 3053 3054 3055 3056 3057 3058 3059 3060 
3061 3062 3063 3064 3065 3066 3067 3068 3069 
3070 3071 3072 3073 3074 3075 3076 3077 3078 
3079 3080 3081 3082 3083 3084 3085 3086 3087 
3088 3089 3090 3091 3092 3093 3094 3095 3096 
3097 3098 3099 3100 3101 3102 3103 3104 3105 
3106 3107 3108 3109 3110 3111 3112 3113 3114 
3115 3116 3117 3118 3119 3120 3121 3122 3123 
3124 3125 3126 3127 3128 3129 3130 3131 3132 
3133 3134 3135 3136 3137 3138 3139 3140 3141 
3142 3143 3144 3145 3146 3147 3148 3149 3150 
3151 3152 3153 3154 3155 3156 3157 3158 3159 
3160 3161 3162 3163 3164 3165 3166 3167 3168 
3169 3170 3171 3172 3173 3174 3175 3176 3177 
3178 3179 3180 3181 3182 3183 3184 3185 3186 
3187 3188 3189 3190 3191 3192 3193 3194 3195 
3196 3197 3198 3199 3200 3201 3202 3203 3204 
3205 3206 3207 3208 3209 3210 3211 3212 3213 
3214 3215 3216 3217 3218 3219 3220 3221 3222 
3223 3224 3225 3226 3227 3228 3229 3230 3231 
3232 3233 3234 3235 3236 3237 3238 3239 3240 
3241 3242 3243 3244 3245 3246 3247 3248 3249 
3250 3251 3252 3253 3254 3255 3256 3257 3258 
3259 3260 3261 3262 3263 3264 3265 3266 3267 
3268 3269 3270 3271 3272 3273 3274 3275 3276 
3277 3278 3279 3280 3281 3282 3283 3284 3285 
3286 3287 3288 3289 3290 3291 3292 3293 3294 
3295 3296 3297 3298 3299 3300 3301 3302 3303 
3304 3305 3306 3307 3308 3309 3310 3311 3312 
3313 3314 3315 3316 3317 3318 3319 3320 3321 
3322 3323 3324 3325 3326 3327 3328 3329 3330 
3331 3332 3333 3334 3335 3336 3337 3338 3339 
3340 3341 3342 3343 3344 3345 3346 3347 3348 
3349 3350 3351 3352 3353 3354 3355 3356 3357 
3358 3359 3360 3361 3362 3363 3364 3365 3366 
3367 3368 3369 3370 3371 3372 3373 3374 3375 
3376 3377 3378 3379 3380 3381 3382 3383 3384 
3385 3386 3387 3388 3389 3390 3391 3392 3393 
3394 3395 3396 3397 3398 3399 3400 3401 3402 
3403 3404 3405 3406 3407 3408 3409 3410 3411 
3412 3413 3414 3415 3416 3417 3418 3419 3420 
3421 3422 3423 3424 3425 3426 3427 3428 3429 
3430 3431 3432 3433 3434 3435 3436 3437 3438 
3439 3440 3441 3442 3443 3444 3445 3446 3447 
3448 3449 3450 3451 3452 3453 3454 3455 3456 
3457 3458 3459 3460 3461 3462 3463 3464 3465 
3466 3467 3468 3469 3470 3471 3472 3473 3474 
3475 3476 3477 3478 3479 3480 3481 3482 3483 
3484 3485 3486 3487 3488 3489 3490 3491 3492 
3493 3494 3495 3496 3497 3498 3499 3500 3501 
3502 3503 3504 3505 3506 3507 3508 3509 3510 
3511 3512 3513 3514 3515 3516 3517 3518 3519 
3520 3521 3522 3523 3524 3525 3526 3527 3528 
3529 3530 3531 3532 3533 3534 3535 3536 3537 
3538 3539 3540 3541 3542 3543 3544 3545 3546 
3547 3548 3549 3550 3551 3552 3553 3554 3555 
3556 3557 3558 3559 3560 3561 3562 3563 3564 
3565 3566 3567 3568 3569 3570 3571 3572 3573 
3574 3575 3576 3577 3578 3579 3580 3581 3582 
3583 3584 3585 3586 3587 3588 3589 3590 3591 
3592 3593 3594 3595 3596 3597 3598 3599 3600 
3601 3602 3603 3604 3605 3606 3607 3608 3609 
3610 3611 3612 3613 3614 3615 3616 3617 3618 
3619 3620 3621 3622 3623 3624 3625 3626 3627 
3628 3629 3630 3631 3632 3633 3634 3635 3636 
3637 3638 3639 3640 3641 3642 3643 3644 3645 
3646 3647 3648 3649 3650 3651 3652 3653 3654 
3655 3656 3657 3658 3659 3660 3661 3662 3663 
3664 3665 3666 3667 3668 3669 3670 3671 3672 
3673 3674 3675 3676 3677 3678 3679 3680 3681 
3682 3683 3684 3685 3686 3687 3688 3689 3690 
3691 3692 3693 3694 3695 3696 3697 3698 3699 
3700 3701 3702 3703 3704 3705 3706 3707 3708 
3709 3710 3711 3712 3713 3714 3715 3716 3717 
3718 3719 3720 3721 3722 3723 3724 3725 3726 
3727 3728 3729 3730 3731 3732 3733 3734 3735 
3736 3737 3738 3739 3740 3741 3742 3743 3744 
3745 3746 3747 3748 3749 3750 3751 3752 3753 
3754 3755 3756 3757 3758 3759 3760 3761 3762 
3763 3764 3765 3766 3767 3768 3769 3770 3771 
3772 3773 3774 3775 3776 3777 3778 3779 3780 
3781 3782 3783 3784 3785 3786 3787 3788 3789 
3790 3791 3792 3793 3794 3795 3796 3797 3798 
3799 3800 3801 3802 3803 3804 3805 3806 3807 
3808 3809 3810 3811 3812 3813 3814 3815 3816 
3817 3818 3819 3820 3821 3822 3823 3824 3825 
3826 3827 3828 3829 3830 3831 3832 3833 3834 
3835 3836 3837 3838 3839 3840 3841 3842 3843 
3844 3845 3846 3847 3848 3849 3850 3851 3852 
3853 3854 3855 3856 3857 3858 3859 3860 3861 
3862 3863 3864 3865 3866 3867 3868 3869 3870 
3871 3872 3873 3874 3875 3876 3877 3878 3879 
3880 3881 3882 3883 3884 3885 3886 3887 3888 
3889 3890 3891 3892 3893 3894 3895 3896 3897 
3898 3899 3900 3901 3902 3903 3904 3905 3906 
3907 3908 3909 3910 3911 3912 3913 3914 3915 
3916 3917 3918 3919 3920 3921 3922 3923 3924 
3925 3926 3927 3928 3929 3930 3931 3932 3933 
3934 3935 3936 3937 3938 3939 3940 3941 3942 
3943 3944 3945 3946 3947 3948 3949 3950 3951 
3952 3953 3954 3955 3956 3957 3958 3959 3960 
3961 3962 3963 3964 3965 3966 3967 3968 3969 
3970 3971 3972 3973 3974 3975 3976 3977 3978 
3979 3980 3981 3982 3983 3984 3985 3986 3987 
3988 3989 3990 3991 3992 3993 3994 3995 3996 
3997 3998 3999 4000 4001 4002 4003 4004 4005 
4006 4007 4008 4009 4010 4011 4012 4013 4014 
4015 4016 4017 4018 4019 4020 4021 4022 4023 
4024 4025 4026 4027 4028 4029 4030 4031 4032 
4033 4034 4035 4036 4037 4038 4039 4040 4041 
4042 4043 4044 4045 4046 4047 4048 4049 4050 
4051 4052 4053 4054 4055 4056 4057 4058 4059 
4060 4061 4062 4063 4064 4065 4066 4067 4068 
4069 4070 4071 4072 4073 4074 4075 4076 4077 
4078 4079 4080 4081 4082 4083 4084 4085 4086 
4087 4088 4089 4090 4091 4092 4093 4094 4095 
4096 4097 4098 4099 4100 4101 4102 4103 4104 
4105 4106 4107 4108 4109 4110 4111 4112 4113 
4114 4115 4116 4117 4118 4119 4120 4121 4122 
4123 4124 4125 4126 4127 4128 4129 4130 4131 
4132 4133 4134 4135 4136 4137 4138 4139 4140 
4141 4142 4143 4144 4145 4146 4147 4148 4149 
4150 4151 4152 4153 4154 4155 4156 4157 4158 
4159 4160 4161 4162 4163 4164 4165 4166 4167 
4168 4169 4170 4171 4172 4173 4174 4175 4176 
4177 4178 4179 4180 4181 4182 4183 4184 4185 
4186 4187 4188 4189 4190 4191 4192 4193 4194 
4195 4196 4197 4198 4199 4200 4201 4202 4203 
4204 4205 4206 4207 4208 4209 4210 4211 4212 
4213 4214 4215 4216 4217 4218 4219 4220 4221 
4222 4223 4224 4225 4226 4227 4228 4229 4230 
4231 4232 4233 4234 4235 4236 4237 4238 4239 
4240 4241 4242 4243 4244 4245 4246 4247 4248 
4249 4250 4251 4252 4253 4254 4255 4256 4257 
4258 4259 4260 4261 4262 4263 4264 4265 4266 
4267 4268 4269 4270 4271 4272 4273 4274 4275 
4276 4277 4278 4279 4280 4281 4282 4283 4284 
4285 4286 4287 4288 4289 4290 4291 4292 4293 
4294 4295 4296 4297 4298 4299 4300 4301 4302 
4303 4304 4305 4306 4307 4308 4309 4310 4311 
4312 4313 4314 4315 4316 4317 4318 4319 4320 
4321 4322 4323 4324 4325 4326 4327 4328 4329 
4330 4331 4332 4333 4334 4335 4336 4337 4338 
4339 4340 4341 4342 4343 4344 4345 4346 4347 
4348 4349 4350 4351 4352 4353 4354 4355 4356 
4357 4358 4359 4360 4361 4362 4363 4364 4365 
4366 4367 4368 4369 4370 4371 4372 4373 4374 
4375 4376 4377 4378 4379 4380 4381 4382 4383 
4384 4385 4386 4387 4388 4389 4390 4391 4392 
4393 4394 4395 4396 4397 4398 4399 4400 4401 
4402 4403 4404 4405 4406 4407 4408 4409 4410 
4411 4412 4413 4414 4415 4416 4417 4418 4419 
4420 4421 4422 4423 4424 4425 4426 4427 4428 
4429 4430 4431 4432 4433 4434 4435 4436 4437 